Formula,SMILES,Tot_atoms,Tot_nH_atoms,Dataset_no,Molecular_weight,IUPAC_chemname,Metalloid,EPISUITE,InChI_Code,InChI_Key,Boiling_Point,BP_basis,EPIsuite_output,MP,Basis,Life
C3H5BrClP,BrCP1C(Cl)C1,11,6,9666,187.401,1-(bromomethyl)-2-chlorophosphirane,N,BrCP1C(Cl)C1,"InChI=1S/C3H5BrClP/c4-2-6-1-3(6)5/h3H,1-2H2",InChIKey=MQALNTGOYDEKHU-UHFFFAOYSA-N,168.17,Pr,   168.17(BP est)    -20.12(MP est)      ----(BP exp)      ----(MP exp)  BrCP1C(Cl)C1 ,-20.12,Pred,N
C3H5BrClP,ClCP1C(Br)C1,11,6,9667,187.401,2-bromo-1-(chloromethyl)phosphirane,N,ClCP1C(Br)C1,"InChI=1S/C3H5BrClP/c4-3-1-6(3)2-5/h3H,1-2H2",InChIKey=SXUIEEBOCWFOAO-UHFFFAOYSA-N,179.66,Pr,   179.66(BP est)    -16.77(MP est)      ----(BP exp)      ----(MP exp)  ClCP1C(Br)C1 ,-16.77,Pred,N
C3H5BrClP,CP1C(Cl)(Br)C1,11,6,9668,187.401,2-bromo-2-chloro-1-methylphosphirane,N,CP1C(Cl)(Br)C1,"InChI=1S/C3H5BrClP/c1-6-2-3(6,4)5/h2H2,1H3",InChIKey=MWPFWYDRHDCTFF-UHFFFAOYSA-N,144.81,Pr,   144.81(BP est)    -14.99(MP est)      ----(BP exp)      ----(MP exp)  CP1C(Cl)(Br)C1 ,-14.99,Pred,N
C3H5BrClP,BrC1(Cl)CCP1,11,6,9669,187.401,2-bromo-2-chlorophosphetane,N,BrC1(Cl)CCP1,"InChI=1S/C3H5BrClP/c4-3(5)1-2-6-3/h6H,1-2H2",InChIKey=DEDFVKDCLNFTRY-UHFFFAOYSA-N,145.96,Pr,   145.96(BP est)    -15.73(MP est)      ----(BP exp)      ----(MP exp)  BrC1(Cl)CCP1 ,-15.73,Pred,N
C3H5BrClP,CP1C(Br)C1Cl,11,6,9670,187.401,2-bromo-3-chloro-1-methylphosphirane,N,CP1C(Br)C1Cl,"InChI=1S/C3H5BrClP/c1-6-2(4)3(6)5/h2-3H,1H3",InChIKey=SFSDQHFQJXBFLW-UHFFFAOYSA-N,161.95,Pr,   161.95(BP est)    -24.06(MP est)      ----(BP exp)      ----(MP exp)  CP1C(Br)C1Cl ,-24.06,Pred,N
C3H5BrClP,BrC1C(Cl)CP1,11,6,9671,187.401,2-bromo-3-chlorophosphetane,N,BrC1C(Cl)CP1,"InChI=1S/C3H5BrClP/c4-3-2(5)1-6-3/h2-3,6H,1H2",InChIKey=WRABMTCZLGTWNR-UHFFFAOYSA-N,163.06,Pr,   163.06(BP est)    -24.81(MP est)      ----(BP exp)      ----(MP exp)  BrC1C(Cl)CP1 ,-24.81,Pred,N
C3H5BrClP,ClC1CC(Br)P1,11,6,9672,187.401,2-bromo-4-chlorophosphetane,N,ClC1CC(Br)P1,"InChI=1S/C3H5BrClP/c4-2-1-3(5)6-2/h2-3,6H,1H2",InChIKey=KDFLIMOWQXSVRA-UHFFFAOYSA-N,163.06,Pr,   163.06(BP est)    -24.81(MP est)      ----(BP exp)      ----(MP exp)  ClC1CC(Br)P1 ,-24.81,Pred,N
C3H5BrClP,ClC1C(Br)CP1,11,6,9673,187.401,3-bromo-2-chlorophosphetane,N,ClC1C(Br)CP1,"InChI=1S/C3H5BrClP/c4-2-1-6-3(2)5/h2-3,6H,1H2",InChIKey=BOZHHSPHHYZXHU-UHFFFAOYSA-N,163.06,Pr,   163.06(BP est)    -24.81(MP est)      ----(BP exp)      ----(MP exp)  ClC1C(Br)CP1 ,-24.81,Pred,N
C3H5BrClP,BrC1(Cl)CPC1,11,6,9674,187.401,3-bromo-3-chlorophosphetane,N,BrC1(Cl)CPC1,"InChI=1S/C3H5BrClP/c4-3(5)1-6-2-3/h6H,1-2H2",InChIKey=MXCHPLBSUSGVGO-UHFFFAOYSA-N,145.96,Pr,   145.96(BP est)    -15.73(MP est)      ----(BP exp)      ----(MP exp)  BrC1(Cl)CPC1 ,-15.73,Pred,N
C2H3BrClOP,O=PC(C)(Br)Cl,9,6,9750,189.373,(1-bromo-1-chloroethyl)(oxo)phosphane,N,O=PC(C)(Br)Cl,"InChI=1S/C2H3BrClOP/c1-2(3,4)6-5/h1H3",InChIKey=SNTPIGYNYVAELQ-UHFFFAOYSA-N,172.07,Pr,   172.07(BP est)     -7.77(MP est)      ----(BP exp)      ----(MP exp)  O=PC(C)(Br)Cl ,-7.77,Pred,N
C2H3BrClOP,O=PC(Br)CCl,9,6,9751,189.373,(1-bromo-2-chloroethyl)(oxo)phosphane,N,O=PC(Br)CCl,"InChI=1S/C2H3BrClOP/c3-2(1-4)6-5/h2H,1H2",InChIKey=DGGIFEHXUNEITP-UHFFFAOYSA-N,202.5,Pr,   202.50(BP est)     -7.60(MP est)      ----(BP exp)      ----(MP exp)  O=PC(Br)CCl ,-7.6,Pred,N
C2H3BrClOP,O=PC(Cl)CBr,9,6,9753,189.373,(2-bromo-1-chloroethyl)(oxo)phosphane,N,O=PC(Cl)CBr,"InChI=1S/C2H3BrClOP/c3-1-2(4)6-5/h2H,1H2",InChIKey=DTAYQONOFCPMTQ-UHFFFAOYSA-N,191.56,Pr,   191.56(BP est)    -10.79(MP est)      ----(BP exp)      ----(MP exp)  O=PC(Cl)CBr ,-10.79,Pred,N
C2H3BrClOP,O=PCC(Br)Cl,9,6,9755,189.373,(2-bromo-2-chloroethyl)(oxo)phosphane,N,O=PCC(Br)Cl,"InChI=1S/C2H3BrClOP/c3-2(4)1-6-5/h2H,1H2",InChIKey=ATQUHWWAKHPVJO-UHFFFAOYSA-N,191.56,Pr,   191.56(BP est)    -10.79(MP est)      ----(BP exp)      ----(MP exp)  O=PCC(Br)Cl ,-10.79,Pred,N
C2H3BrClOP,O=P1C(Cl)(Br)C1,9,6,9758,189.373,2-bromo-2-chlorophosphirane 1-oxide,N,O=P1C(Cl)(Br)C1,"InChI=1S/C2H3BrClOP/c3-2(4)1-6(2)5/h6H,1H2",InChIKey=NXTTUWXVIWNZAE-UHFFFAOYSA-N,181.65,Pr,   181.65(BP est)      8.31(MP est)      ----(BP exp)      ----(MP exp)  O=P1C(Cl)(Br)C1 ,8.31,Pred,N
C2H3BrClOP,O=P1C(Br)C1Cl,9,6,9760,189.373,2-bromo-3-chlorophosphirane 1-oxide,N,O=P1C(Br)C1Cl,"InChI=1S/C2H3BrClOP/c3-1-2(4)6(1)5/h1-2,6H",InChIKey=RLHYUZAIWAQUGB-UHFFFAOYSA-N,197.58,Pr,   197.58(BP est)     -1.11(MP est)      ----(BP exp)      ----(MP exp)  O=P1C(Br)C1Cl ,-1.11,Pred,N
C3H7BrClP,CPC(Cl)(C)Br,13,6,9761,189.417,(1-bromo-1-chloroethyl)(methyl)phosphane,N,CPC(Cl)(C)Br,"InChI=1S/C3H7BrClP/c1-3(4,5)6-2/h6H,1-2H3",InChIKey=CEEYKUIAIGXKRH-UHFFFAOYSA-N,131.51,Pr,   131.51(BP est)    -39.66(MP est)      ----(BP exp)      ----(MP exp)  CPC(Cl)(C)Br ,-39.66,Pred,N
C3H7BrClP,CC(P)C(Cl)Br,13,6,9762,189.417,(1-bromo-1-chloropropan-2-yl)phosphane,N,CC(P)C(Cl)Br,"InChI=1S/C3H7BrClP/c1-2(6)3(4)5/h2-3H,6H2,1H3",InChIKey=VOZJJFDUGIIBNF-UHFFFAOYSA-N,158.16,Pr,   158.16(BP est)    -39.91(MP est)      ----(BP exp)      ----(MP exp)  CC(P)C(Cl)Br ,-39.91,Pred,N
C3H7BrClP,BrC(CC)(P)Cl,13,6,9763,189.417,(1-bromo-1-chloropropyl)phosphane,N,BrC(CC)(P)Cl,"InChI=1S/C3H7BrClP/c1-2-3(4,5)6/h2,6H2,1H3",InChIKey=JROWPEYWCVTZBS-UHFFFAOYSA-N,150.77,Pr,   150.77(BP est)    -25.85(MP est)      ----(BP exp)      ----(MP exp)  BrC(CC)(P)Cl ,-25.85,Pred,N
C3H7BrClP,CPC(Br)CCl,13,6,9764,189.417,(1-bromo-2-chloroethyl)(methyl)phosphane,N,CPC(Br)CCl,"InChI=1S/C3H7BrClP/c1-6-3(4)2-5/h3,6H,2H2,1H3",InChIKey=OVEFYIJSVSHNOP-UHFFFAOYSA-N,164.41,Pr,   164.41(BP est)    -38.77(MP est)      ----(BP exp)      ----(MP exp)  CPC(Br)CCl ,-38.77,Pred,N
C3H7BrClP,ClC(CBr)(P)C,13,6,9765,189.417,(1-bromo-2-chloropropan-2-yl)phosphane,N,ClC(CBr)(P)C,"InChI=1S/C3H7BrClP/c1-3(5,6)2-4/h2,6H2,1H3",InChIKey=QLLXPGNSEIJAJF-UHFFFAOYSA-N,150.77,Pr,   150.77(BP est)    -25.85(MP est)      ----(BP exp)      ----(MP exp)  ClC(CBr)(P)C ,-25.85,Pred,N
C3H7BrClP,BrC(P)C(C)Cl,13,6,9766,189.417,(1-bromo-2-chloropropyl)phosphane,N,BrC(P)C(C)Cl,"InChI=1S/C3H7BrClP/c1-2(5)3(4)6/h2-3H,6H2,1H3",InChIKey=NVDFVCRLDVWMIE-UHFFFAOYSA-N,158.16,Pr,   158.16(BP est)    -39.91(MP est)      ----(BP exp)      ----(MP exp)  BrC(P)C(C)Cl ,-39.91,Pred,N
C3H7BrClP,PC(Br)CCCl,13,6,9767,189.417,(1-bromo-3-chloropropyl)phosphane,N,PC(Br)CCCl,"InChI=1S/C3H7BrClP/c4-3(6)1-2-5/h3H,1-2,6H2",InChIKey=QXKLNJNRRQJHEL-UHFFFAOYSA-N,182.52,Pr,   182.52(BP est)    -25.29(MP est)      ----(BP exp)      ----(MP exp)  PC(Br)CCCl ,-25.29,Pred,N
C3H7BrClP,ClCPC(Br)C,13,6,9768,189.417,(1-bromoethyl)(chloromethyl)phosphane,N,ClCPC(Br)C,"InChI=1S/C3H7BrClP/c1-3(4)6-2-5/h3,6H,2H2,1H3",InChIKey=ASRMWRPAXCBWBJ-UHFFFAOYSA-N,164.41,Pr,   164.41(BP est)    -38.77(MP est)      ----(BP exp)      ----(MP exp)  ClCPC(Br)C ,-38.77,Pred,N
C3H7BrClP,CPC(CBr)Cl,13,6,9769,189.417,(2-bromo-1-chloroethyl)(methyl)phosphane,N,CPC(CBr)Cl,"InChI=1S/C3H7BrClP/c1-6-3(5)2-4/h3,6H,2H2,1H3",InChIKey=YETSEWQJKBXINV-UHFFFAOYSA-N,152.56,Pr,   152.56(BP est)    -42.23(MP est)      ----(BP exp)      ----(MP exp)  CPC(CBr)Cl ,-42.23,Pred,N
C3H7BrClP,ClC(P)C(C)Br,13,6,9770,189.417,(2-bromo-1-chloropropyl)phosphane,N,ClC(P)C(C)Br,"InChI=1S/C3H7BrClP/c1-2(4)3(5)6/h2-3H,6H2,1H3",InChIKey=QGKKBXVOQDETLE-UHFFFAOYSA-N,158.16,Pr,   158.16(BP est)    -39.91(MP est)      ----(BP exp)      ----(MP exp)  ClC(P)C(C)Br ,-39.91,Pred,N
C3H7BrClP,CPCC(Cl)Br,13,6,9771,189.417,(2-bromo-2-chloroethyl)(methyl)phosphane,N,CPCC(Cl)Br,"InChI=1S/C3H7BrClP/c1-6-2-3(4)5/h3,6H,2H2,1H3",InChIKey=WCSOZKVNEPTKGZ-UHFFFAOYSA-N,152.56,Pr,   152.56(BP est)    -42.23(MP est)      ----(BP exp)      ----(MP exp)  CPCC(Cl)Br ,-42.23,Pred,N
C3H7BrClP,BrC(Cl)(C)CP,13,6,9772,189.417,(2-bromo-2-chloropropyl)phosphane,N,BrC(Cl)(C)CP,"InChI=1S/C3H7BrClP/c1-3(4,5)2-6/h2,6H2,1H3",InChIKey=GFOSMTHGUPHYEY-UHFFFAOYSA-N,150.77,Pr,   150.77(BP est)    -25.85(MP est)      ----(BP exp)      ----(MP exp)  BrC(Cl)(C)CP ,-25.85,Pred,N
C3H7BrClP,PCC(Br)CCl,13,6,9773,189.417,(2-bromo-3-chloropropyl)phosphane,N,PCC(Br)CCl,"InChI=1S/C3H7BrClP/c4-3(1-5)2-6/h3H,1-2,6H2",InChIKey=NZQXQVYCPMZJQC-UHFFFAOYSA-N,182.52,Pr,   182.52(BP est)    -25.29(MP est)      ----(BP exp)      ----(MP exp)  PCC(Br)CCl ,-25.29,Pred,N
C3H7BrClP,ClCPCCBr,13,6,9774,189.417,(2-bromoethyl)(chloromethyl)phosphane,N,ClCPCCBr,"InChI=1S/C3H7BrClP/c4-1-2-6-3-5/h6H,1-3H2",InChIKey=FSDKOGZQJVVIEV-UHFFFAOYSA-N,177.19,Pr,   177.19(BP est)    -27.54(MP est)      ----(BP exp)      ----(MP exp)  ClCPCCBr ,-27.54,Pred,N
C3H7BrClP,PC(Cl)CCBr,13,6,9775,189.417,(3-bromo-1-chloropropyl)phosphane,N,PC(Cl)CCBr,"InChI=1S/C3H7BrClP/c4-2-1-3(5)6/h3H,1-2,6H2",InChIKey=IYXDAGVYJWXDBH-UHFFFAOYSA-N,171.1,Pr,   171.10(BP est)    -28.63(MP est)      ----(BP exp)      ----(MP exp)  PC(Cl)CCBr ,-28.63,Pred,N
C3H7BrClP,PCC(Cl)CBr,13,6,9776,189.417,(3-bromo-2-chloropropyl)phosphane,N,PCC(Cl)CBr,"InChI=1S/C3H7BrClP/c4-1-3(5)2-6/h3H,1-2,6H2",InChIKey=CKUHLBSOQMTPHM-UHFFFAOYSA-N,171.1,Pr,   171.10(BP est)    -28.63(MP est)      ----(BP exp)      ----(MP exp)  PCC(Cl)CBr ,-28.63,Pred,N
C3H7BrClP,PCCC(Br)Cl,13,6,9777,189.417,(3-bromo-3-chloropropyl)phosphane,N,PCCC(Br)Cl,"InChI=1S/C3H7BrClP/c4-3(5)1-2-6/h3H,1-2,6H2",InChIKey=ISRFFKAIAYAAKU-UHFFFAOYSA-N,171.1,Pr,   171.10(BP est)    -28.63(MP est)      ----(BP exp)      ----(MP exp)  PCCC(Br)Cl ,-28.63,Pred,N
C3H7BrClP,BrC(PCC)Cl,13,6,9778,189.417,(bromochloromethyl)(ethyl)phosphane,N,BrC(PCC)Cl,"InChI=1S/C3H7BrClP/c1-2-6-3(4)5/h3,6H,2H2,1H3",InChIKey=FDKQIUHBFCPNMI-UHFFFAOYSA-N,152.56,Pr,   152.56(BP est)    -42.23(MP est)      ----(BP exp)      ----(MP exp)  BrC(PCC)Cl ,-42.23,Pred,N
C3H7BrClP,CP(C(Cl)Br)C,13,6,9779,189.417,(bromochloromethyl)dimethylphosphane,N,CP(C(Cl)Br)C,"InChI=1S/C3H7BrClP/c1-6(2)3(4)5/h3H,1-2H3",InChIKey=KWAYIXMDYAKZMX-UHFFFAOYSA-N,153.44,Pr,   153.44(BP est)    -42.65(MP est)      ----(BP exp)      ----(MP exp)  CP(C(Cl)Br)C ,-42.65,Pred,N
C3H7BrClP,BrCPC(C)Cl,13,6,9780,189.417,(bromomethyl)(1-chloroethyl)phosphane,N,BrCPC(C)Cl,"InChI=1S/C3H7BrClP/c1-3(5)6-2-4/h3,6H,2H2,1H3",InChIKey=OMRGJMAOZHXHFJ-UHFFFAOYSA-N,152.56,Pr,   152.56(BP est)    -42.23(MP est)      ----(BP exp)      ----(MP exp)  BrCPC(C)Cl ,-42.23,Pred,N
C3H7BrClP,BrCPCCCl,13,6,9781,189.417,(bromomethyl)(2-chloroethyl)phosphane,N,BrCPCCCl,"InChI=1S/C3H7BrClP/c4-3-6-2-1-5/h6H,1-3H2",InChIKey=NPIOTSKQDVJYGD-UHFFFAOYSA-N,177.19,Pr,   177.19(BP est)    -27.54(MP est)      ----(BP exp)      ----(MP exp)  BrCPCCCl ,-27.54,Pred,N
C3H7BrClP,CP(CCl)CBr,13,6,9782,189.417,(bromomethyl)(chloromethyl)(methyl)phosphane,N,CP(CCl)CBr,"InChI=1S/C3H7BrClP/c1-6(2-4)3-5/h2-3H2,1H3",InChIKey=WALNPQMIDUSPPA-UHFFFAOYSA-N,178.03,Pr,   178.03(BP est)    -27.98(MP est)      ----(BP exp)      ----(MP exp)  CP(CCl)CBr ,-27.98,Pred,N
C2H2BrClFP,PC(Br)=C(Cl)F,8,6,9857,191.364,(1-bromo-2-chloro-2-fluorovinyl)phosphane,N,PC(Br)=C(Cl)F,InChI=1S/C2H2BrClFP/c3-1(6)2(4)5/h6H2,InChIKey=HPBAKANTJSEOLJ-UHFFFAOYSA-N,145.69,Pr,   145.69(BP est)    -50.39(MP est)      ----(BP exp)      ----(MP exp)  PC(Br)=C(Cl)F ,-50.39,Pred,N
C2H2BrClFP,PC(Cl)=C(Br)F,8,6,9858,191.364,(2-bromo-1-chloro-2-fluorovinyl)phosphane,N,PC(Cl)=C(Br)F,InChI=1S/C2H2BrClFP/c3-1(5)2(4)6/h6H2,InChIKey=OOLOMLCBPGDUOQ-UHFFFAOYSA-N,145.69,Pr,   145.69(BP est)    -50.39(MP est)      ----(BP exp)      ----(MP exp)  PC(Cl)=C(Br)F ,-50.39,Pred,N
C2H2BrClFP,PC(F)=C(Br)Cl,8,6,9859,191.364,(2-bromo-2-chloro-1-fluorovinyl)phosphane,N,PC(F)=C(Br)Cl,InChI=1S/C2H2BrClFP/c3-1(4)2(5)6/h6H2,InChIKey=ONHIXIGQSOIWFU-UHFFFAOYSA-N,145.69,Pr,   145.69(BP est)    -50.39(MP est)      ----(BP exp)      ----(MP exp)  PC(F)=C(Br)Cl ,-50.39,Pred,N
C2H2BrClFP,FC1C(Cl)(Br)P1,8,6,9860,191.364,2-bromo-2-chloro-3-fluorophosphirane,N,FC1C(Cl)(Br)P1,"InChI=1S/C2H2BrClFP/c3-2(4)1(5)6-2/h1,6H",InChIKey=MRGIATHERRWXJK-UHFFFAOYSA-N,116.68,Pr,   116.68(BP est)    -29.98(MP est)      ----(BP exp)      ----(MP exp)  FC1C(Cl)(Br)P1 ,-29.98,Pred,N
C2H2BrClFP,ClC1C(F)(Br)P1,8,6,9861,191.364,2-bromo-3-chloro-2-fluorophosphirane,N,ClC1C(F)(Br)P1,"InChI=1S/C2H2BrClFP/c3-2(5)1(4)6-2/h1,6H",InChIKey=XDMCGRIACRXSKS-UHFFFAOYSA-N,129.27,Pr,   129.27(BP est)    -26.31(MP est)      ----(BP exp)      ----(MP exp)  ClC1C(F)(Br)P1 ,-26.31,Pred,N
C2H2BrClFP,BrC1C(F)(Cl)P1,8,6,9862,191.364,3-bromo-2-chloro-2-fluorophosphirane,N,BrC1C(F)(Cl)P1,"InChI=1S/C2H2BrClFP/c3-1-2(4,5)6-1/h1,6H",InChIKey=XCVNGJUUZGUDDN-UHFFFAOYSA-N,116.68,Pr,   116.68(BP est)    -29.98(MP est)      ----(BP exp)      ----(MP exp)  BrC1C(F)(Cl)P1 ,-29.98,Pred,N
C2H5BrClOP,BrC(POC)Cl,11,6,9868,191.389,(bromochloromethyl)(methoxy)phosphane,N,BrC(POC)Cl,"InChI=1S/C2H5BrClOP/c1-5-6-2(3)4/h2,6H,1H3",InChIKey=TZLNZDODDFHROZ-UHFFFAOYSA-N,153.41,Pr,   153.41(BP est)    -36.50(MP est)      ----(BP exp)      ----(MP exp)  BrC(POC)Cl ,-36.5,Pred,N
C2H5BrClOP,O=P(C)C(Br)Cl,11,6,9869,191.389,(bromochloromethyl)(methyl)phosphine oxide,N,O=P(C)C(Br)Cl,"InChI=1S/C2H5BrClOP/c1-6(5)2(3)4/h2,6H,1H3",InChIKey=LBGNFGKRQVIMAL-UHFFFAOYSA-N,189.68,Pr,   189.68(BP est)    -19.52(MP est)      ----(BP exp)      ----(MP exp)  O=P(C)C(Br)Cl ,-19.52,Pred,N
C2H5BrClOP,O=P(CCl)CBr,11,6,9871,191.389,(bromomethyl)(chloromethyl)phosphine oxide,N,O=P(CCl)CBr,"InChI=1S/C2H5BrClOP/c3-1-6(5)2-4/h6H,1-2H2",InChIKey=OPRXJRUQOASIIR-UHFFFAOYSA-N,212.49,Pr,   212.49(BP est)     -5.37(MP est)      ----(BP exp)      ----(MP exp)  O=P(CCl)CBr ,-5.37,Pred,N
CBrClFOP,O=PC(F)(Br)Cl,6,6,9970,193.336,(bromochlorofluoromethyl)(oxo)phosphane,N,O=PC(F)(Br)Cl,"InChI=1S/CBrClFOP/c2-1(3,4)6-5",InChIKey=NYWIZEDXJOSDLW-UHFFFAOYSA-N,152.63,Pr,   152.63(BP est)    -18.78(MP est)      ----(BP exp)      ----(MP exp)  O=PC(F)(Br)Cl ,-18.78,Pred,N
CH3BrClO2P,O=P(C(Br)Cl)O,9,6,9971,193.361,(bromochloromethyl)phosphinic acid,N,O=P(C(Br)Cl)O,"InChI=1S/CH3BrClO2P/c2-1(3)6(4)5/h1,6H,(H,4,5)",InChIKey=KKVDOTHWQQKKHU-UHFFFAOYSA-N,255.11,Pr,   255.11(BP est)     24.35(MP est)      ----(BP exp)      ----(MP exp)  O=P(C(Br)Cl)O ,24.35,Pred,N
C2H4BrClFP,PC(CF)(Br)Cl,10,6,9972,193.38,(1-bromo-1-chloro-2-fluoroethyl)phosphane,N,PC(CF)(Br)Cl,"InChI=1S/C2H4BrClFP/c3-2(4,6)1-5/h1,6H2",InChIKey=SJGFIHBJXLIJRP-UHFFFAOYSA-N,130.53,Pr,   130.53(BP est)    -37.10(MP est)      ----(BP exp)      ----(MP exp)  PC(CF)(Br)Cl ,-37.1,Pred,N
C2H4BrClFP,PC(CCl)(Br)F,10,6,9973,193.38,(1-bromo-2-chloro-1-fluoroethyl)phosphane,N,PC(CCl)(Br)F,"InChI=1S/C2H4BrClFP/c3-2(5,6)1-4/h1,6H2",InChIKey=SWHMHSPZCMNQDY-UHFFFAOYSA-N,154.9,Pr,   154.90(BP est)    -29.99(MP est)      ----(BP exp)      ----(MP exp)  PC(CCl)(Br)F ,-29.99,Pred,N
C2H4BrClFP,PC(Br)C(Cl)F,10,6,9974,193.38,(1-bromo-2-chloro-2-fluoroethyl)phosphane,N,PC(Br)C(Cl)F,"InChI=1S/C2H4BrClFP/c3-1(6)2(4)5/h1-2H,6H2",InChIKey=OGXZZFXUQKSYMS-UHFFFAOYSA-N,138.19,Pr,   138.19(BP est)    -51.08(MP est)      ----(BP exp)      ----(MP exp)  PC(Br)C(Cl)F ,-51.08,Pred,N
C2H4BrClFP,PC(CBr)(Cl)F,10,6,9975,193.38,(2-bromo-1-chloro-1-fluoroethyl)phosphane,N,PC(CBr)(Cl)F,"InChI=1S/C2H4BrClFP/c3-1-2(4,5)6/h1,6H2",InChIKey=OZBHAYRQCDCRIC-UHFFFAOYSA-N,130.53,Pr,   130.53(BP est)    -37.10(MP est)      ----(BP exp)      ----(MP exp)  PC(CBr)(Cl)F ,-37.1,Pred,N
C2H4BrClFP,PC(Cl)C(Br)F,10,6,9976,193.38,(2-bromo-1-chloro-2-fluoroethyl)phosphane,N,PC(Cl)C(Br)F,"InChI=1S/C2H4BrClFP/c3-1(5)2(4)6/h1-2H,6H2",InChIKey=XHWVYEUDWYNBHE-UHFFFAOYSA-N,138.19,Pr,   138.19(BP est)    -51.08(MP est)      ----(BP exp)      ----(MP exp)  PC(Cl)C(Br)F ,-51.08,Pred,N
C2H4BrClFP,PC(F)C(Br)Cl,10,6,9977,193.38,(2-bromo-2-chloro-1-fluoroethyl)phosphane,N,PC(F)C(Br)Cl,"InChI=1S/C2H4BrClFP/c3-1(4)2(5)6/h1-2H,6H2",InChIKey=VALVKGPQDZMVNO-UHFFFAOYSA-N,138.19,Pr,   138.19(BP est)    -51.08(MP est)      ----(BP exp)      ----(MP exp)  PC(F)C(Br)Cl ,-51.08,Pred,N
C2H4BrClFP,PCC(F)(Br)Cl,10,6,9978,193.38,(2-bromo-2-chloro-2-fluoroethyl)phosphane,N,PCC(F)(Br)Cl,"InChI=1S/C2H4BrClFP/c3-2(4,5)1-6/h1,6H2",InChIKey=JGDKEPYZZFOIBB-UHFFFAOYSA-N,130.53,Pr,   130.53(BP est)    -37.10(MP est)      ----(BP exp)      ----(MP exp)  PCC(F)(Br)Cl ,-37.1,Pred,N
C2H4BrClFP,CPC(F)(Br)Cl,10,6,9979,193.38,(bromochlorofluoromethyl)(methyl)phosphane,N,CPC(F)(Br)Cl,"InChI=1S/C2H4BrClFP/c1-6-2(3,4)5/h6H,1H3",InChIKey=AMJSCBXIPOQCLO-UHFFFAOYSA-N,110.56,Pr,   110.56(BP est)    -51.12(MP est)      ----(BP exp)      ----(MP exp)  CPC(F)(Br)Cl ,-51.12,Pred,N
C2H4BrClFP,FCPC(Br)Cl,10,6,9980,193.38,(bromochloromethyl)(fluoromethyl)phosphane,N,FCPC(Br)Cl,"InChI=1S/C2H4BrClFP/c3-2(4)6-1-5/h2,6H,1H2",InChIKey=RVCIXWVBZHELTA-UHFFFAOYSA-N,132.38,Pr,   132.38(BP est)    -53.46(MP est)      ----(BP exp)      ----(MP exp)  FCPC(Br)Cl ,-53.46,Pred,N
C2H4BrClFP,ClCPC(Br)F,10,6,9981,193.38,(bromofluoromethyl)(chloromethyl)phosphane,N,ClCPC(Br)F,"InChI=1S/C2H4BrClFP/c3-2(5)6-1-4/h2,6H,1H2",InChIKey=VKVWNDIXTCPXCO-UHFFFAOYSA-N,144.68,Pr,   144.68(BP est)    -49.87(MP est)      ----(BP exp)      ----(MP exp)  ClCPC(Br)F ,-49.87,Pred,N
C2H4BrClFP,BrCPC(Cl)F,10,6,9982,193.38,(bromomethyl)(chlorofluoromethyl)phosphane,N,BrCPC(Cl)F,"InChI=1S/C2H4BrClFP/c3-1-6-2(4)5/h2,6H,1H2",InChIKey=KTPPJJUJXPGQBG-UHFFFAOYSA-N,132.38,Pr,   132.38(BP est)    -53.46(MP est)      ----(BP exp)      ----(MP exp)  BrCPC(Cl)F ,-53.46,Pred,N
C2H2BrCl2P,PC(Br)=C(Cl)Cl,8,6,11015,207.816,"(1-bromo-2,2-dichlorovinyl)phosphane",N,PC(Br)=C(Cl)Cl,InChI=1S/C2H2BrCl2P/c3-1(6)2(4)5/h6H2,InChIKey=JFMOBEUAWFINJC-UHFFFAOYSA-N,175.98,Pr,   175.98(BP est)    -26.88(MP est)      ----(BP exp)      ----(MP exp)  PC(Br)=C(Cl)Cl ,-26.88,Pred,N
C2H2BrCl2P,PC(Cl)=C(Br)Cl,8,6,11016,207.816,"(2-bromo-1,2-dichlorovinyl)phosphane",N,PC(Cl)=C(Br)Cl,InChI=1S/C2H2BrCl2P/c3-1(4)2(5)6/h6H2,InChIKey=UVOIQDUIIQRBLI-UHFFFAOYSA-N,175.98,Pr,   175.98(BP est)    -26.88(MP est)      ----(BP exp)      ----(MP exp)  PC(Cl)=C(Br)Cl ,-26.88,Pred,N
C2H2BrCl2P,ClC1C(Cl)(Br)P1,8,6,11017,207.816,"2-bromo-2,3-dichlorophosphirane",N,ClC1C(Cl)(Br)P1,"InChI=1S/C2H2BrCl2P/c3-2(5)1(4)6-2/h1,6H",InChIKey=VDNIQTPSYQSRPT-UHFFFAOYSA-N,162.4,Pr,   162.40(BP est)     -1.97(MP est)      ----(BP exp)      ----(MP exp)  ClC1C(Cl)(Br)P1 ,-1.97,Pred,N
C2H2BrCl2P,BrC1C(Cl)(Cl)P1,8,6,11018,207.816,"3-bromo-2,2-dichlorophosphirane",N,BrC1C(Cl)(Cl)P1,"InChI=1S/C2H2BrCl2P/c3-1-2(4,5)6-1/h1,6H",InChIKey=NAFBBEBWNAUGGX-UHFFFAOYSA-N,150.54,Pr,   150.54(BP est)     -5.43(MP est)      ----(BP exp)      ----(MP exp)  BrC1C(Cl)(Cl)P1 ,-5.43,Pred,N
C4H2IP,C#CPC#CI,8,6,11025,207.938,ethynyl(iodoethynyl)phosphane,N,C#CPC#CI,"InChI=1S/C4H2IP/c1-2-6-4-3-5/h1,6H",InChIKey=IFSWOKABSOHQFO-UHFFFAOYSA-N,194.81,Pr,   194.81(BP est)     22.02(MP est)      ----(BP exp)      ----(MP exp)  C#CPC#CI ,22.02,Pred,N
CBrCl2OP,O=PC(Cl)(Br)Cl,6,6,11047,209.788,(bromodichloromethyl)(oxo)phosphane,N,O=PC(Cl)(Br)Cl,"InChI=1S/CBrCl2OP/c2-1(3,4)6-5",InChIKey=SDTNKTZSYSRKTK-UHFFFAOYSA-N,184.36,Pr,   184.36(BP est)      5.14(MP est)      ----(BP exp)      ----(MP exp)  O=PC(Cl)(Br)Cl ,5.14,Pred,N
C2H4BrCl2P,PC(CCl)(Br)Cl,10,6,11049,209.832,"(1-bromo-1,2-dichloroethyl)phosphane",N,PC(CCl)(Br)Cl,"InChI=1S/C2H4BrCl2P/c3-2(5,6)1-4/h1,6H2",InChIKey=QBOPJJJVGUWFJN-UHFFFAOYSA-N,186.48,Pr,   186.48(BP est)     -6.10(MP est)      ----(BP exp)      ----(MP exp)  PC(CCl)(Br)Cl ,-6.1,Pred,N
C2H4BrCl2P,PC(Br)C(Cl)Cl,10,6,11050,209.832,"(1-bromo-2,2-dichloroethyl)phosphane",N,PC(Br)C(Cl)Cl,"InChI=1S/C2H4BrCl2P/c3-1(6)2(4)5/h1-2H,6H2",InChIKey=HUFDZCAQPNZOKI-UHFFFAOYSA-N,182.19,Pr,   182.19(BP est)    -23.57(MP est)      ----(BP exp)      ----(MP exp)  PC(Br)C(Cl)Cl ,-23.57,Pred,N
C2H4BrCl2P,PC(CBr)(Cl)Cl,10,6,11051,209.832,"(2-bromo-1,1-dichloroethyl)phosphane",N,PC(CBr)(Cl)Cl,"InChI=1S/C2H4BrCl2P/c3-1-2(4,5)6/h1,6H2",InChIKey=DOLQCIZRMSMAHS-UHFFFAOYSA-N,163.58,Pr,   163.58(BP est)    -12.79(MP est)      ----(BP exp)      ----(MP exp)  PC(CBr)(Cl)Cl ,-12.79,Pred,N
C2H4BrCl2P,PC(Cl)C(Br)Cl,10,6,11052,209.832,"(2-bromo-1,2-dichloroethyl)phosphane",N,PC(Cl)C(Br)Cl,"InChI=1S/C2H4BrCl2P/c3-1(4)2(5)6/h1-2H,6H2",InChIKey=BCJDWLQMWIPBNU-UHFFFAOYSA-N,182.19,Pr,   182.19(BP est)    -23.57(MP est)      ----(BP exp)      ----(MP exp)  PC(Cl)C(Br)Cl ,-23.57,Pred,N