Formula,SMILES,Tot_atoms,Tot_nH_atoms,Dataset_no,Molecular_weight,IUPAC_chemname,Metalloid,EPISUITE,InChI_Code,InChI_Key,Boiling_Point,BP_basis,EPIsuite_output,MP,Basis,Life
C3H2ClOP,O=PC(Cl)C#C,8,6,5954,120.472,(1-chloroprop-2-yn-1-yl)(oxo)phosphane,N,O=PC(Cl)C#C,"InChI=1S/C3H2ClOP/c1-2-3(4)6-5/h1,3H",InChIKey=XSEKVPWRRBTVPV-UHFFFAOYSA-N,151.57,Pr,   151.57(BP est)    -23.24(MP est)      ----(BP exp)      ----(MP exp)  O=PC(Cl)C#C ,-23.24,Pred,N
C3H2ClOP,O=PCC#CCl,8,6,5955,120.472,(3-chloroprop-2-yn-1-yl)(oxo)phosphane,N,O=PCC#CCl,InChI=1S/C3H2ClOP/c4-2-1-3-6-5/h3H2,InChIKey=OHENRQXLOMSXLM-UHFFFAOYSA-N,159.07,Pr,   159.07(BP est)     16.01(MP est)      ----(BP exp)      ----(MP exp)  O=PCC#CCl ,16.01,Pred,N
C4H6ClP,ClC(P)CC#C,12,6,5956,120.516,(1-chlorobut-3-yn-1-yl)phosphane,N,ClC(P)CC#C,"InChI=1S/C4H6ClP/c1-2-3-4(5)6/h1,4H,3,6H2",InChIKey=OVQAJHNEKCUSEC-UHFFFAOYSA-N,129.42,Pr,   129.42(BP est)    -41.58(MP est)      ----(BP exp)      ----(MP exp)  ClC(P)CC#C ,-41.58,Pred,N
C4H6ClP,ClCC(P)C#C,12,6,5957,120.516,(1-chlorobut-3-yn-2-yl)phosphane,N,ClCC(P)C#C,"InChI=1S/C4H6ClP/c1-2-4(6)3-5/h1,4H,3,6H2",InChIKey=HWFUDOWWWGMZNX-UHFFFAOYSA-N,141.78,Pr,   141.78(BP est)    -37.97(MP est)      ----(BP exp)      ----(MP exp)  ClCC(P)C#C ,-37.97,Pred,N
C4H6ClP,ClC1(P)CC=C1,12,6,5958,120.516,(1-chlorocyclobut-2-en-1-yl)phosphane,N,ClC1(P)CC=C1,"InChI=1S/C4H6ClP/c5-4(6)2-1-3-4/h1-2H,3,6H2",InChIKey=XBSXRVNQGKDKFL-UHFFFAOYSA-N,119.57,Pr,   119.57(BP est)    -40.90(MP est)      ----(BP exp)      ----(MP exp)  ClC1(P)CC=C1 ,-40.9,Pred,N
C4H6ClP,ClC(PC#C)C,12,6,5959,120.516,(1-chloroethyl)(ethynyl)phosphane,N,ClC(PC#C)C,"InChI=1S/C4H6ClP/c1-3-6-4(2)5/h1,4,6H,2H3",InChIKey=GCUJEKHVFARPLZ-UHFFFAOYSA-N,109.42,Pr,   109.42(BP est)    -55.60(MP est)      ----(BP exp)      ----(MP exp)  ClC(PC#C)C ,-55.6,Pred,N
C4H6ClP,CPC(C#C)Cl,12,6,5960,120.516,(1-chloroprop-2-yn-1-yl)(methyl)phosphane,N,CPC(C#C)Cl,"InChI=1S/C4H6ClP/c1-3-4(5)6-2/h1,4,6H,2H3",InChIKey=DKNMCCSCCWZVRP-UHFFFAOYSA-N,109.42,Pr,   109.42(BP est)    -55.60(MP est)      ----(BP exp)      ----(MP exp)  CPC(C#C)Cl ,-55.6,Pred,N
C4H6ClP,C=CPC(Cl)=C,12,6,5961,120.516,(1-chlorovinyl)(vinyl)phosphane,N,C=CPC(Cl)=C,"InChI=1S/C4H6ClP/c1-3-6-4(2)5/h3,6H,1-2H2",InChIKey=JEVLURZDIPXHQR-UHFFFAOYSA-N,90.11,Pr,    90.11(BP est)    -85.96(MP est)      ----(BP exp)      ----(MP exp)  C=CPC(Cl)=C ,-85.96,Pred,N
C4H6ClP,ClC(C#C)CP,12,6,5962,120.516,(2-chlorobut-3-yn-1-yl)phosphane,N,ClC(C#C)CP,"InChI=1S/C4H6ClP/c1-2-4(5)3-6/h1,4H,3,6H2",InChIKey=QESLKJCNWPIKTM-UHFFFAOYSA-N,129.42,Pr,   129.42(BP est)    -41.58(MP est)      ----(BP exp)      ----(MP exp)  ClC(C#C)CP ,-41.58,Pred,N
C4H6ClP,ClC(C#C)(P)C,12,6,5963,120.516,(2-chlorobut-3-yn-2-yl)phosphane,N,ClC(C#C)(P)C,"InChI=1S/C4H6ClP/c1-3-4(2,5)6/h1H,6H2,2H3",InChIKey=FFJOOLXAURRZIH-UHFFFAOYSA-N,107.49,Pr,   107.49(BP est)    -39.27(MP est)      ----(BP exp)      ----(MP exp)  ClC(C#C)(P)C ,-39.27,Pred,N
C4H6ClP,ClC1=CCC1P,12,6,5964,120.516,(2-chlorocyclobut-2-en-1-yl)phosphane,N,ClC1=CCC1P,"InChI=1S/C4H6ClP/c5-3-1-2-4(3)6/h1,4H,2,6H2",InChIKey=DIFDYACJRGERAD-UHFFFAOYSA-N,127.73,Pr,   127.73(BP est)    -44.21(MP est)      ----(BP exp)      ----(MP exp)  ClC1=CCC1P ,-44.21,Pred,N
C4H6ClP,ClCCPC#C,12,6,5965,120.516,(2-chloroethyl)(ethynyl)phosphane,N,ClCCPC#C,"InChI=1S/C4H6ClP/c1-2-6-4-3-5/h1,6H,3-4H2",InChIKey=HQSASYUJHJSPLB-UHFFFAOYSA-N,136.01,Pr,   136.01(BP est)    -40.34(MP est)      ----(BP exp)      ----(MP exp)  ClCCPC#C ,-40.34,Pred,N
C4H6ClP,C=CPC=CCl,12,6,5966,120.516,(2-chlorovinyl)(vinyl)phosphane,N,C=CPC=CCl,"InChI=1S/C4H6ClP/c1-2-6-4-3-5/h2-4,6H,1H2",InChIKey=PIGYCERYHXXMSB-UHFFFAOYSA-N,105.91,Pr,   105.91(BP est)    -76.03(MP est)      ----(BP exp)      ----(MP exp)  C=CPC=CCl ,-76.03,Pred,N
C4H6ClP,ClC1=CC(P)C1,12,6,5967,120.516,(3-chlorocyclobut-2-en-1-yl)phosphane,N,ClC1=CC(P)C1,"InChI=1S/C4H6ClP/c5-3-1-4(6)2-3/h1,4H,2,6H2",InChIKey=HNDGPFGBRXPJRS-UHFFFAOYSA-N,127.73,Pr,   127.73(BP est)    -44.21(MP est)      ----(BP exp)      ----(MP exp)  ClC1=CC(P)C1 ,-44.21,Pred,N
C4H6ClP,CPCC#CCl,12,6,5968,120.516,(3-chloroprop-2-yn-1-yl)(methyl)phosphane,N,CPCC#CCl,"InChI=1S/C4H6ClP/c1-6-4-2-3-5/h6H,4H2,1H3",InChIKey=KNGVEOXKPSVTIC-UHFFFAOYSA-N,117.49,Pr,   117.49(BP est)    -16.18(MP est)      ----(BP exp)      ----(MP exp)  CPCC#CCl ,-16.18,Pred,N
C4H6ClP,ClC#CCCP,12,6,5969,120.516,(4-chlorobut-3-yn-1-yl)phosphane,N,ClC#CCCP,"InChI=1S/C4H6ClP/c5-3-1-2-4-6/h2,4,6H2",InChIKey=KUUMTLHLXJMEDN-UHFFFAOYSA-N,137.22,Pr,   137.22(BP est)     -2.23(MP est)      ----(BP exp)      ----(MP exp)  ClC#CCCP ,-2.23,Pred,N
C4H6ClP,CC(P)C#CCl,12,6,5970,120.516,(4-chlorobut-3-yn-2-yl)phosphane,N,CC(P)C#CCl,"InChI=1S/C4H6ClP/c1-4(6)2-3-5/h4H,6H2,1H3",InChIKey=HYWAYPQBJOWTAI-UHFFFAOYSA-N,123.45,Pr,   123.45(BP est)    -13.76(MP est)      ----(BP exp)      ----(MP exp)  CC(P)C#CCl ,-13.76,Pred,N
C4H6ClP,ClC1C(P)C=C1,12,6,5971,120.516,(4-chlorocyclobut-2-en-1-yl)phosphane,N,ClC1C(P)C=C1,"InChI=1S/C4H6ClP/c5-3-1-2-4(3)6/h1-4H,6H2",InChIKey=NFLWHQXAIMUUMM-UHFFFAOYSA-N,137.49,Pr,   137.49(BP est)    -49.73(MP est)      ----(BP exp)      ----(MP exp)  ClC1C(P)C=C1 ,-49.73,Pred,N
C4H6ClP,CCPC#CCl,12,6,5972,120.516,(chloroethynyl)(ethyl)phosphane,N,CCPC#CCl,"InChI=1S/C4H6ClP/c1-2-6-4-3-5/h6H,2H2,1H3",InChIKey=CMGYTLLHRTXLFW-UHFFFAOYSA-N,117.49,Pr,   117.49(BP est)    -16.18(MP est)      ----(BP exp)      ----(MP exp)  CCPC#CCl ,-16.18,Pred,N
C4H6ClP,CP(C)C#CCl,12,6,5973,120.516,(chloroethynyl)dimethylphosphane,N,CP(C)C#CCl,InChI=1S/C4H6ClP/c1-6(2)4-3-5/h1-2H3,InChIKey=DDBUSHMQTBJEEY-UHFFFAOYSA-N,118.42,Pr,   118.42(BP est)    -16.59(MP est)      ----(BP exp)      ----(MP exp)  CP(C)C#CCl ,-16.59,Pred,N
C4H6ClP,CP(CCl)C#C,12,6,5974,120.516,(chloromethyl)(ethynyl)(methyl)phosphane,N,CP(CCl)C#C,"InChI=1S/C4H6ClP/c1-3-6(2)4-5/h1H,4H2,2H3",InChIKey=LTJXASVFGCDSHH-UHFFFAOYSA-N,136.92,Pr,   136.92(BP est)    -40.76(MP est)      ----(BP exp)      ----(MP exp)  CP(CCl)C#C ,-40.76,Pred,N
C4H6ClP,ClCPCC#C,12,6,5975,120.516,(chloromethyl)(prop-2-yn-1-yl)phosphane,N,ClCPCC#C,"InChI=1S/C4H6ClP/c1-2-3-6-4-5/h1,6H,3-4H2",InChIKey=GVHUFFPPOUTKEE-UHFFFAOYSA-N,136.01,Pr,   136.01(BP est)    -40.34(MP est)      ----(BP exp)      ----(MP exp)  ClCPCC#C ,-40.34,Pred,N
C4H6ClP,ClC(P1CC1)=C,12,6,5976,120.516,1-(1-chlorovinyl)phosphirane,N,ClC(P1CC1)=C,InChI=1S/C4H6ClP/c1-4(5)6-2-3-6/h1-3H2,InChIKey=VVDZWHFWWKILNO-UHFFFAOYSA-N,101.79,Pr,   101.79(BP est)    -69.51(MP est)      ----(BP exp)      ----(MP exp)  ClC(P1CC1)=C ,-69.51,Pred,N
C4H6ClP,ClC=CP1CC1,12,6,5977,120.516,1-(2-chlorovinyl)phosphirane,N,ClC=CP1CC1,"InChI=1S/C4H6ClP/c5-1-2-6-3-4-6/h1-2H,3-4H2",InChIKey=WDACYOGTKZQROW-UHFFFAOYSA-N,117.3,Pr,   117.30(BP est)    -59.66(MP est)      ----(BP exp)      ----(MP exp)  ClC=CP1CC1 ,-59.66,Pred,N
C4H6ClP,ClCP1C=CC1,12,6,5978,120.516,"1-(chloromethyl)-1,2-dihydrophosphete",N,ClCP1C=CC1,"InChI=1S/C4H6ClP/c5-4-6-2-1-3-6/h1-2H,3-4H2",InChIKey=HIOKSRYOEBXVGD-UHFFFAOYSA-N,142.32,Pr,   142.32(BP est)    -51.20(MP est)      ----(BP exp)      ----(MP exp)  ClCP1C=CC1 ,-51.2,Pred,N
C4H6ClP,CP1C=CC1Cl,12,6,5979,120.516,"2-chloro-1-methyl-1,2-dihydrophosphete",N,CP1C=CC1Cl,"InChI=1S/C4H6ClP/c1-6-3-2-4(6)5/h2-4H,1H3",InChIKey=MHVXHTLIFSMKPK-UHFFFAOYSA-N,123.3,Pr,   123.30(BP est)    -58.87(MP est)      ----(BP exp)      ----(MP exp)  CP1C=CC1Cl ,-58.87,Pred,N
C4H6ClP,ClC1CP1C=C,12,6,5980,120.516,2-chloro-1-vinylphosphirane,N,ClC1CP1C=C,"InChI=1S/C4H6ClP/c1-2-6-3-4(6)5/h2,4H,1,3H2",InChIKey=HHEVMMKYPJMWSN-UHFFFAOYSA-N,116.38,Pr,   116.38(BP est)    -60.39(MP est)      ----(BP exp)      ----(MP exp)  ClC1CP1C=C ,-60.39,Pred,N
C4H6ClP,ClC1CC=CP1,12,6,5981,120.516,"2-chloro-2,3-dihydro-1H-phosphole",N,ClC1CC=CP1,"InChI=1S/C4H6ClP/c5-4-2-1-3-6-4/h1,3-4,6H,2H2",InChIKey=TVJCXZPJJSMGTE-UHFFFAOYSA-N,124.5,Pr,   124.50(BP est)    -59.59(MP est)      ----(BP exp)      ----(MP exp)  ClC1CC=CP1 ,-59.59,Pred,N
C4H6ClP,CP1C=C(Cl)C1,12,6,5982,120.516,"3-chloro-1-methyl-1,2-dihydrophosphete",N,CP1C=C(Cl)C1,"InChI=1S/C4H6ClP/c1-6-2-4(5)3-6/h2H,3H2,1H3",InChIKey=UEVYZXLOKSCWFY-UHFFFAOYSA-N,113.3,Pr,   113.30(BP est)    -53.41(MP est)      ----(BP exp)      ----(MP exp)  CP1C=C(Cl)C1 ,-53.41,Pred,N
C4H6ClP,ClC1C=CPC1,12,6,5983,120.516,"3-chloro-2,3-dihydro-1H-phosphole",N,ClC1C=CPC1,"InChI=1S/C4H6ClP/c5-4-1-2-6-3-4/h1-2,4,6H,3H2",InChIKey=QQPIHHDGQFSNNJ-UHFFFAOYSA-N,124.5,Pr,   124.50(BP est)    -59.59(MP est)      ----(BP exp)      ----(MP exp)  ClC1C=CPC1 ,-59.59,Pred,N
C4H6ClP,CP1C(Cl)=CC1,12,6,5984,120.516,"4-chloro-1-methyl-1,2-dihydrophosphete",N,CP1C(Cl)=CC1,"InChI=1S/C4H6ClP/c1-6-3-2-4(6)5/h2H,3H2,1H3",InChIKey=LXXYBANJVGADOA-UHFFFAOYSA-N,113.3,Pr,   113.30(BP est)    -53.41(MP est)      ----(BP exp)      ----(MP exp)  CP1C(Cl)=CC1 ,-53.41,Pred,N
C4H6ClP,ClC1=CPCC1,12,6,5985,120.516,"4-chloro-2,3-dihydro-1H-phosphole",N,ClC1=CPCC1,"InChI=1S/C4H6ClP/c5-4-1-2-6-3-4/h3,6H,1-2H2",InChIKey=LEOCGPSYBWZQJT-UHFFFAOYSA-N,114.51,Pr,   114.51(BP est)    -54.13(MP est)      ----(BP exp)      ----(MP exp)  ClC1=CPCC1 ,-54.13,Pred,N
C4H6ClP,ClC1=CCCP1,12,6,5986,120.516,"5-chloro-2,3-dihydro-1H-phosphole",N,ClC1=CCCP1,"InChI=1S/C4H6ClP/c5-4-2-1-3-6-4/h2,6H,1,3H2",InChIKey=NPZQRZLXIHVXMS-UHFFFAOYSA-N,114.51,Pr,   114.51(BP est)    -54.13(MP est)      ----(BP exp)      ----(MP exp)  ClC1=CCCP1 ,-54.13,Pred,N
C3H8NPS,CCNC(P)=S,14,6,6036,121.138,N-ethylphosphanecarbothioamide,N,CCNC(P)=S,"InChI=1S/C3H8NPS/c1-2-4-3(5)6/h2,5H2,1H3,(H,4,6)",InChIKey=KSGFVHJUGHYBFV-UHFFFAOYSA-N,181.21,Pr,   181.21(BP est)      2.66(MP est)      ----(BP exp)      ----(MP exp)  CCNC(P)=S ,2.66,Pred,N
C4H11PS,SCCP(C)C,17,6,6050,122.166,2-(dimethylphosphaneyl)ethane-1-thiol,N,SCCP(C)C,"InChI=1S/C4H11PS/c1-5(2)3-4-6/h6H,3-4H2,1-2H3",InChIKey=FVZSUQSDILOCEY-UHFFFAOYSA-N,146.7,Pr,   146.70(BP est)    -58.12(MP est)      ----(BP exp)      ----(MP exp)  SCCP(C)C ,-58.12,Pred,N
C4H11PS,CCP(=S)CC,17,6,6051,122.166,diethylphosphine sulfide,N,CCP(=S)CC,"InChI=1S/C4H11PS/c1-3-5(6)4-2/h5H,3-4H2,1-2H3",InChIKey=GQMIGIPYQLWEAU-UHFFFAOYSA-N,122.86,Pr,   122.86(BP est)   -125.12(MP est)      ----(BP exp)      ----(MP exp)  CCP(=S)CC ,-125.12,Pred,N
C4H11PS,S=P(C)(C)CC,17,6,6052,122.166,ethyldimethylphosphine sulfide,N,S=P(C)(C)CC,"InChI=1S/C4H11PS/c1-4-5(2,3)6/h4H2,1-3H3",InChIKey=XCXWPFQLGAAMFO-UHFFFAOYSA-N,120.72,Pr,   120.72(BP est)   -133.93(MP est)      ----(BP exp)      ----(MP exp)  S=P(C)(C)CC ,-133.93,Pred,N
C3H4ClOP,O=PC(Cl)C=C,10,6,6071,122.488,(1-chloroallyl)(oxo)phosphane,N,O=PC(Cl)C=C,"InChI=1S/C3H4ClOP/c1-2-3(4)6-5/h2-3H,1H2",InChIKey=KPRYLXLNRPHYMS-UHFFFAOYSA-N,142.13,Pr,   142.13(BP est)    -50.37(MP est)      ----(BP exp)      ----(MP exp)  O=PC(Cl)C=C ,-50.37,Pred,N
C3H4ClOP,ClC(PO)C#C,10,6,6072,122.488,(1-chloroprop-2-yn-1-yl)(hydroxy)phosphane,N,ClC(PO)C#C,"InChI=1S/C3H4ClOP/c1-2-3(4)6-5/h1,3,5-6H",InChIKey=HCILGSMJPJJEFK-UHFFFAOYSA-N,186.32,Pr,   186.32(BP est)     -8.38(MP est)      ----(BP exp)      ----(MP exp)  ClC(PO)C#C ,-8.38,Pred,N
C3H4ClOP,O=PCC(Cl)=C,10,6,6073,122.488,(2-chloroallyl)(oxo)phosphane,N,O=PCC(Cl)=C,InChI=1S/C3H4ClOP/c1-3(4)2-6-5/h1-2H2,InChIKey=JAWQPYZKOAYPEK-UHFFFAOYSA-N,135.3,Pr,   135.30(BP est)    -51.84(MP est)      ----(BP exp)      ----(MP exp)  O=PCC(Cl)=C ,-51.84,Pred,N
C3H4ClOP,O=PCC=CCl,10,6,6074,122.488,(3-chloroallyl)(oxo)phosphane,N,O=PCC=CCl,"InChI=1S/C3H4ClOP/c4-2-1-3-6-5/h1-2H,3H2",InChIKey=WBBALACOQHYGLE-UHFFFAOYSA-N,149.96,Pr,   149.96(BP est)    -42.24(MP est)      ----(BP exp)      ----(MP exp)  O=PCC=CCl ,-42.24,Pred,N
C3H4ClOP,ClC#CPOC,10,6,6077,122.488,(chloroethynyl)(methoxy)phosphane,N,ClC#CPOC,"InChI=1S/C3H4ClOP/c1-5-6-3-2-4/h6H,1H3",InChIKey=AGYZQAZNNHTBBT-UHFFFAOYSA-N,118.39,Pr,   118.39(BP est)    -10.44(MP est)      ----(BP exp)      ----(MP exp)  ClC#CPOC ,-10.44,Pred,N
C3H4ClOP,O=P(C)C#CCl,10,6,6078,122.488,(chloroethynyl)(methyl)phosphine oxide,N,O=P(C)C#CCl,"InChI=1S/C3H4ClOP/c1-6(5)3-2-4/h6H,1H3",InChIKey=WJNUXAKYIDVGLT-UHFFFAOYSA-N,157.06,Pr,   157.06(BP est)      7.24(MP est)      ----(BP exp)      ----(MP exp)  O=P(C)C#CCl ,7.24,Pred,N
C3H4ClOP,O=P(CCl)C#C,10,6,6080,122.488,(chloromethyl)(ethynyl)phosphine oxide,N,O=P(CCl)C#C,"InChI=1S/C3H4ClOP/c1-2-6(5)3-4/h1,6H,3H2",InChIKey=MIWAEVAEUCJTDL-UHFFFAOYSA-N,174.3,Pr,   174.30(BP est)    -17.29(MP est)      ----(BP exp)      ----(MP exp)  O=P(CCl)C#C ,-17.29,Pred,N
C3H4ClOP,O=P1C=CC1Cl,10,6,6081,122.488,2-chloro-2H-phosphete 1-oxide,N,O=P1C=CC1Cl,"InChI=1S/C3H4ClOP/c4-3-1-2-6(3)5/h1-3,6H",InChIKey=AZUROOIWDRMKCU-UHFFFAOYSA-N,161.61,Pr,   161.61(BP est)    -35.13(MP est)      ----(BP exp)      ----(MP exp)  O=P1C=CC1Cl ,-35.13,Pred,N
C3H4ClOP,O=P1C=C(Cl)C1,10,6,6083,122.488,3-chloro-2H-phosphete 1-oxide,N,O=P1C=C(Cl)C1,"InChI=1S/C3H4ClOP/c4-3-1-6(5)2-3/h1,6H,2H2",InChIKey=LOTDSHOYUREIFQ-UHFFFAOYSA-N,152.27,Pr,   152.27(BP est)    -29.48(MP est)      ----(BP exp)      ----(MP exp)  O=P1C=C(Cl)C1 ,-29.48,Pred,N
C3H4ClOP,O=P1C(Cl)=CC1,10,6,6085,122.488,4-chloro-2H-phosphete 1-oxide,N,O=P1C(Cl)=CC1,"InChI=1S/C3H4ClOP/c4-3-1-2-6(3)5/h1,6H,2H2",InChIKey=FVHLNQDRZYETBK-UHFFFAOYSA-N,152.27,Pr,   152.27(BP est)    -29.48(MP est)      ----(BP exp)      ----(MP exp)  O=P1C(Cl)=CC1 ,-29.48,Pred,N
C4H8ClP,ClC1(CP)CC1,14,6,6087,122.532,((1-chlorocyclopropyl)methyl)phosphane,N,ClC1(CP)CC1,"InChI=1S/C4H8ClP/c5-4(3-6)1-2-4/h1-3,6H2",InChIKey=WYOFLFQXOHQNHF-UHFFFAOYSA-N,114.35,Pr,   114.35(BP est)    -41.04(MP est)      ----(BP exp)      ----(MP exp)  ClC1(CP)CC1 ,-41.04,Pred,N
C4H8ClP,ClC1C(CP)C1,14,6,6088,122.532,((2-chlorocyclopropyl)methyl)phosphane,N,ClC1C(CP)C1,"InChI=1S/C4H8ClP/c5-4-1-3(4)2-6/h3-4H,1-2,6H2",InChIKey=NNMJSCHHLLIHOU-UHFFFAOYSA-N,132.44,Pr,   132.44(BP est)    -49.83(MP est)      ----(BP exp)      ----(MP exp)  ClC1C(CP)C1 ,-49.83,Pred,N
C4H8ClP,ClCC1(P)CC1,14,6,6089,122.532,(1-(chloromethyl)cyclopropyl)phosphane,N,ClCC1(P)CC1,"InChI=1S/C4H8ClP/c5-3-4(6)1-2-4/h1-3,6H2",InChIKey=NERZVQQEJPXOOH-UHFFFAOYSA-N,139.41,Pr,   139.41(BP est)    -33.72(MP est)      ----(BP exp)      ----(MP exp)  ClCC1(P)CC1 ,-33.72,Pred,N
C4H8ClP,CPC(C=C)Cl,14,6,6090,122.532,(1-chloroallyl)(methyl)phosphane,N,CPC(C=C)Cl,"InChI=1S/C4H8ClP/c1-3-4(5)6-2/h3-4,6H,1H2,2H3",InChIKey=SJJNXZZPPDYMIB-UHFFFAOYSA-N,99.26,Pr,    99.26(BP est)    -82.93(MP est)      ----(BP exp)      ----(MP exp)  CPC(C=C)Cl ,-82.93,Pred,N
C4H8ClP,ClC(P)CC=C,14,6,6091,122.532,(1-chlorobut-3-en-1-yl)phosphane,N,ClC(P)CC=C,"InChI=1S/C4H8ClP/c1-2-3-4(5)6/h2,4H,1,3,6H2",InChIKey=AYGWPBFWYZYSIT-UHFFFAOYSA-N,119.6,Pr,   119.60(BP est)    -68.81(MP est)      ----(BP exp)      ----(MP exp)  ClC(P)CC=C ,-68.81,Pred,N
C4H8ClP,ClCC(P)C=C,14,6,6092,122.532,(1-chlorobut-3-en-2-yl)phosphane,N,ClCC(P)C=C,"InChI=1S/C4H8ClP/c1-2-4(6)3-5/h2,4H,1,3,6H2",InChIKey=QPCMGRVWOXPHEO-UHFFFAOYSA-N,132.17,Pr,   132.17(BP est)    -65.14(MP est)      ----(BP exp)      ----(MP exp)  ClCC(P)C=C ,-65.14,Pred,N
C4H8ClP,ClC1(P)CCC1,14,6,6093,122.532,(1-chlorocyclobutyl)phosphane,N,ClC1(P)CCC1,"InChI=1S/C4H8ClP/c5-4(6)2-1-3-4/h1-3,6H2",InChIKey=QXEZAPDPUVJQBU-UHFFFAOYSA-N,116.5,Pr,   116.50(BP est)    -42.17(MP est)      ----(BP exp)      ----(MP exp)  ClC1(P)CCC1 ,-42.17,Pred,N
C4H8ClP,CPC1(CC1)Cl,14,6,6094,122.532,(1-chlorocyclopropyl)(methyl)phosphane,N,CPC1(CC1)Cl,"InChI=1S/C4H8ClP/c1-6-4(5)2-3-4/h6H,2-3H2,1H3",InChIKey=BRSWTXXCNOIFJO-UHFFFAOYSA-N,93.85,Pr,    93.85(BP est)    -55.21(MP est)      ----(BP exp)      ----(MP exp)  CPC1(CC1)Cl ,-55.21,Pred,N
C4H8ClP,ClC(PC=C)C,14,6,6095,122.532,(1-chloroethyl)(vinyl)phosphane,N,ClC(PC=C)C,"InChI=1S/C4H8ClP/c1-3-6-4(2)5/h3-4,6H,1H2,2H3",InChIKey=ADLUWPIXAQGESN-UHFFFAOYSA-N,99.26,Pr,    99.26(BP est)    -82.93(MP est)      ----(BP exp)      ----(MP exp)  ClC(PC=C)C ,-82.93,Pred,N
C4H8ClP,CCPC(Cl)=C,14,6,6096,122.532,(1-chlorovinyl)(ethyl)phosphane,N,CCPC(Cl)=C,"InChI=1S/C4H8ClP/c1-3-6-4(2)5/h6H,2-3H2,1H3",InChIKey=FGMKUGNHBGBVIP-UHFFFAOYSA-N,91.93,Pr,    91.93(BP est)    -84.55(MP est)      ----(BP exp)      ----(MP exp)  CCPC(Cl)=C ,-84.55,Pred,N
C4H8ClP,CP(C)C(Cl)=C,14,6,6097,122.532,(1-chlorovinyl)dimethylphosphane,N,CP(C)C(Cl)=C,"InChI=1S/C4H8ClP/c1-4(5)6(2)3/h1H2,2-3H3",InChIKey=DDNWQHMTCBIIIZ-UHFFFAOYSA-N,92.91,Pr,    92.91(BP est)    -84.95(MP est)      ----(BP exp)      ----(MP exp)  CP(C)C(Cl)=C ,-84.95,Pred,N
C4H8ClP,CC1(P)CC1Cl,14,6,6098,122.532,(2-chloro-1-methylcyclopropyl)phosphane,N,CC1(P)CC1Cl,"InChI=1S/C4H8ClP/c1-4(6)2-3(4)5/h3H,2,6H2,1H3",InChIKey=KSDATMOYWBYMOQ-UHFFFAOYSA-N,120.3,Pr,   120.30(BP est)    -41.43(MP est)      ----(BP exp)      ----(MP exp)  CC1(P)CC1Cl ,-41.43,Pred,N
C4H8ClP,CPCC(Cl)=C,14,6,6099,122.532,(2-chloroallyl)(methyl)phosphane,N,CPCC(Cl)=C,"InChI=1S/C4H8ClP/c1-4(5)3-6-2/h6H,1,3H2,2H3",InChIKey=FBVJHEICZACBNP-UHFFFAOYSA-N,91.93,Pr,    91.93(BP est)    -84.55(MP est)      ----(BP exp)      ----(MP exp)  CPCC(Cl)=C ,-84.55,Pred,N
C4H8ClP,ClC(C=C)CP,14,6,6100,122.532,(2-chlorobut-3-en-1-yl)phosphane,N,ClC(C=C)CP,"InChI=1S/C4H8ClP/c1-2-4(5)3-6/h2,4H,1,3,6H2",InChIKey=OROXAXQBSJIOCA-UHFFFAOYSA-N,119.6,Pr,   119.60(BP est)    -68.81(MP est)      ----(BP exp)      ----(MP exp)  ClC(C=C)CP ,-68.81,Pred,N
C4H8ClP,ClC(C=C)(P)C,14,6,6101,122.532,(2-chlorobut-3-en-2-yl)phosphane,N,ClC(C=C)(P)C,"InChI=1S/C4H8ClP/c1-3-4(2,5)6/h3H,1,6H2,2H3",InChIKey=QSJLDQOVDCASHN-UHFFFAOYSA-N,97.3,Pr,    97.30(BP est)    -66.61(MP est)      ----(BP exp)      ----(MP exp)  ClC(C=C)(P)C ,-66.61,Pred,N
C4H8ClP,ClC1C(P)CC1,14,6,6102,122.532,(2-chlorocyclobutyl)phosphane,N,ClC1C(P)CC1,"InChI=1S/C4H8ClP/c5-3-1-2-4(3)6/h3-4H,1-2,6H2",InChIKey=WNUNPMFIOFGLHR-UHFFFAOYSA-N,134.52,Pr,   134.52(BP est)    -50.98(MP est)      ----(BP exp)      ----(MP exp)  ClC1C(P)CC1 ,-50.98,Pred,N
C4H8ClP,CPC1CC1Cl,14,6,6103,122.532,(2-chlorocyclopropyl)(methyl)phosphane,N,CPC1CC1Cl,"InChI=1S/C4H8ClP/c1-6-4-2-3(4)5/h3-4,6H,2H2,1H3",InChIKey=MKKLJEGLEAKUFW-UHFFFAOYSA-N,112.54,Pr,   112.54(BP est)    -63.83(MP est)      ----(BP exp)      ----(MP exp)  CPC1CC1Cl ,-63.83,Pred,N
C4H8ClP,ClCCPC=C,14,6,6104,122.532,(2-chloroethyl)(vinyl)phosphane,N,ClCCPC=C,"InChI=1S/C4H8ClP/c1-2-6-4-3-5/h2,6H,1,3-4H2",InChIKey=GCHXOXUPVBPEMS-UHFFFAOYSA-N,126.3,Pr,   126.30(BP est)    -67.54(MP est)      ----(BP exp)      ----(MP exp)  ClCCPC=C ,-67.54,Pred,N
C4H8ClP,CCPC=CCl,14,6,6105,122.532,(2-chlorovinyl)(ethyl)phosphane,N,CCPC=CCl,"InChI=1S/C4H8ClP/c1-2-6-4-3-5/h3-4,6H,2H2,1H3",InChIKey=FZQYGWPTYLKATI-UHFFFAOYSA-N,107.69,Pr,   107.69(BP est)    -74.63(MP est)      ----(BP exp)      ----(MP exp)  CCPC=CCl ,-74.63,Pred,N
C4H8ClP,CP(C)C=CCl,14,6,6106,122.532,(2-chlorovinyl)dimethylphosphane,N,CP(C)C=CCl,"InChI=1S/C4H8ClP/c1-6(2)4-3-5/h3-4H,1-2H3",InChIKey=ROKHARRZZLHCTC-UHFFFAOYSA-N,108.64,Pr,   108.64(BP est)    -75.04(MP est)      ----(BP exp)      ----(MP exp)  CP(C)C=CCl ,-75.04,Pred,N
C4H8ClP,CPCC=CCl,14,6,6107,122.532,(3-chloroallyl)(methyl)phosphane,N,CPCC=CCl,"InChI=1S/C4H8ClP/c1-6-4-2-3-5/h2-3,6H,4H2,1H3",InChIKey=PONLRRWIHNMYKD-UHFFFAOYSA-N,107.69,Pr,   107.69(BP est)    -74.63(MP est)      ----(BP exp)      ----(MP exp)  CPCC=CCl ,-74.63,Pred,N
C4H8ClP,ClC(CCP)=C,14,6,6108,122.532,(3-chlorobut-3-en-1-yl)phosphane,N,ClC(CCP)=C,"InChI=1S/C4H8ClP/c1-4(5)2-3-6/h1-3,6H2",InChIKey=HYVOBWNBABOFKV-UHFFFAOYSA-N,112.5,Pr,   112.50(BP est)    -70.36(MP est)      ----(BP exp)      ----(MP exp)  ClC(CCP)=C ,-70.36,Pred,N
C4H8ClP,CC(P)C(Cl)=C,14,6,6109,122.532,(3-chlorobut-3-en-2-yl)phosphane,N,CC(P)C(Cl)=C,"InChI=1S/C4H8ClP/c1-3(5)4(2)6/h4H,1,6H2,2H3",InChIKey=PCDMIQWLNUBOLP-UHFFFAOYSA-N,98.14,Pr,    98.14(BP est)    -82.05(MP est)      ----(BP exp)      ----(MP exp)  CC(P)C(Cl)=C ,-82.05,Pred,N
C4H8ClP,ClC1CC(P)C1,14,6,6110,122.532,(3-chlorocyclobutyl)phosphane,N,ClC1CC(P)C1,"InChI=1S/C4H8ClP/c5-3-1-4(6)2-3/h3-4H,1-2,6H2",InChIKey=IZTUKKLXJLNDAD-UHFFFAOYSA-N,134.52,Pr,   134.52(BP est)    -50.98(MP est)      ----(BP exp)      ----(MP exp)  ClC1CC(P)C1 ,-50.98,Pred,N