Formula,SMILES,Tot_atoms,Tot_nH_atoms,Dataset_no,Molecular_weight,IUPAC_chemname,Metalloid,EPISUITE,InChI_Code,InChI_Key,Boiling_Point,BP_basis,EPIsuite_output,MP,Basis,Life
C2H4Cl2IP,PC(CCl)(Cl)I,10,6,12672,256.832,"(1,2-dichloro-1-iodoethyl)phosphane",N,PC(CCl)(Cl)I,"InChI=1S/C2H4Cl2IP/c3-1-2(4,5)6/h1,6H2",InChIKey=RWXGMGHGHXXFEO-UHFFFAOYSA-N,215.49,Pr,   215.49(BP est)      1.50(MP est)      ----(BP exp)      ----(MP exp)  PC(CCl)(Cl)I ,1.5,Pred,N
C2H4Cl2IP,PC(Cl)C(Cl)I,10,6,12673,256.832,"(1,2-dichloro-2-iodoethyl)phosphane",N,PC(Cl)C(Cl)I,"InChI=1S/C2H4Cl2IP/c3-1(5)2(4)6/h1-2H,6H2",InChIKey=RJVQDMMWEVYQBN-UHFFFAOYSA-N,211.48,Pr,   211.48(BP est)    -15.88(MP est)      ----(BP exp)      ----(MP exp)  PC(Cl)C(Cl)I ,-15.88,Pred,N
C2H4Cl2IP,PC(I)C(Cl)Cl,10,6,12674,256.832,"(2,2-dichloro-1-iodoethyl)phosphane",N,PC(I)C(Cl)Cl,"InChI=1S/C2H4Cl2IP/c3-1(4)2(5)6/h1-2H,6H2",InChIKey=GMAQWRKBYSGEBA-UHFFFAOYSA-N,211.48,Pr,   211.48(BP est)    -15.88(MP est)      ----(BP exp)      ----(MP exp)  PC(I)C(Cl)Cl ,-15.88,Pred,N
C2H4Cl2IP,PCC(I)(Cl)Cl,10,6,12675,256.832,"(2,2-dichloro-2-iodoethyl)phosphane",N,PCC(I)(Cl)Cl,"InChI=1S/C2H4Cl2IP/c3-2(4,5)1-6/h1,6H2",InChIKey=FSUNYEXODKESMK-UHFFFAOYSA-N,194.03,Pr,   194.03(BP est)     -4.77(MP est)      ----(BP exp)      ----(MP exp)  PCC(I)(Cl)Cl ,-4.77,Pred,N
C2H4Cl2IP,ClCPC(Cl)I,10,6,12676,256.832,(chloroiodomethyl)(chloromethyl)phosphane,N,ClCPC(Cl)I,"InChI=1S/C2H4Cl2IP/c3-1-6-2(4)5/h2,6H,1H2",InChIKey=NKRNASPHNWNSEJ-UHFFFAOYSA-N,217.05,Pr,   217.05(BP est)    -14.94(MP est)      ----(BP exp)      ----(MP exp)  ClCPC(Cl)I ,-14.94,Pred,N
C2H4Cl2IP,CPC(I)(Cl)Cl,10,6,12677,256.832,(dichloroiodomethyl)(methyl)phosphane,N,CPC(I)(Cl)Cl,"InChI=1S/C2H4Cl2IP/c1-6-2(3,4)5/h6H,1H3",InChIKey=SJSWCKOUMOCKCK-UHFFFAOYSA-N,176.36,Pr,   176.36(BP est)    -18.11(MP est)      ----(BP exp)      ----(MP exp)  CPC(I)(Cl)Cl ,-18.11,Pred,N
C2H4Cl2IP,ICPC(Cl)Cl,10,6,12678,256.832,(dichloromethyl)(iodomethyl)phosphane,N,ICPC(Cl)Cl,"InChI=1S/C2H4Cl2IP/c3-2(4)6-1-5/h2,6H,1H2",InChIKey=DBTPKDDJGSHCAE-UHFFFAOYSA-N,206.48,Pr,   206.48(BP est)    -18.03(MP est)      ----(BP exp)      ----(MP exp)  ICPC(Cl)Cl ,-18.03,Pred,N
C3H3BrIP,PC(C#C)(Br)I,9,6,13069,276.839,(1-bromo-1-iodoprop-2-yn-1-yl)phosphane,N,PC(C#C)(Br)I,"InChI=1S/C3H3BrIP/c1-2-3(4,5)6/h1H,6H2",InChIKey=NMHXUDXUKCYHTQ-UHFFFAOYSA-N,221.7,Pr,   221.70(BP est)     32.41(MP est)      ----(BP exp)      ----(MP exp)  PC(C#C)(Br)I ,32.41,Pred,N
C3H3BrIP,PC(Br)C#CI,9,6,13070,276.839,(1-bromo-3-iodoprop-2-yn-1-yl)phosphane,N,PC(Br)C#CI,"InChI=1S/C3H3BrIP/c4-3(6)1-2-5/h3H,6H2",InChIKey=WAJYMRBZVLZUTH-UHFFFAOYSA-N,235.98,Pr,   235.98(BP est)     46.33(MP est)      ----(BP exp)      ----(MP exp)  PC(Br)C#CI ,46.33,Pred,N
C3H3BrIP,PC(I)C#CBr,9,6,13071,276.839,(3-bromo-1-iodoprop-2-yn-1-yl)phosphane,N,PC(I)C#CBr,"InChI=1S/C3H3BrIP/c4-2-1-3(5)6/h3H,6H2",InChIKey=XOAAQEJCTGZKRY-UHFFFAOYSA-N,235.98,Pr,   235.98(BP est)     46.33(MP est)      ----(BP exp)      ----(MP exp)  PC(I)C#CBr ,46.33,Pred,N
C3H3BrIP,ICPC#CBr,9,6,13072,276.839,(bromoethynyl)(iodomethyl)phosphane,N,ICPC#CBr,"InChI=1S/C3H3BrIP/c4-1-2-6-3-5/h6H,3H2",InChIKey=ARKWKUOUTNRUJD-UHFFFAOYSA-N,231.29,Pr,   231.29(BP est)     44.05(MP est)      ----(BP exp)      ----(MP exp)  ICPC#CBr ,44.05,Pred,N
C3H3BrIP,BrC(PC#C)I,9,6,13073,276.839,(bromoiodomethyl)(ethynyl)phosphane,N,BrC(PC#C)I,"InChI=1S/C3H3BrIP/c1-2-6-3(4)5/h1,3,6H",InChIKey=ZWQRFMNAWLAJIV-UHFFFAOYSA-N,212.86,Pr,   212.86(BP est)     12.93(MP est)      ----(BP exp)      ----(MP exp)  BrC(PC#C)I ,12.93,Pred,N
C3H3BrIP,BrCPC#CI,9,6,13074,276.839,(bromomethyl)(iodoethynyl)phosphane,N,BrCPC#CI,"InChI=1S/C3H3BrIP/c4-3-6-2-1-5/h6H,3H2",InChIKey=UVHYMAFDIIDDFX-UHFFFAOYSA-N,231.29,Pr,   231.29(BP est)     44.05(MP est)      ----(BP exp)      ----(MP exp)  BrCPC#CI ,44.05,Pred,N
C3H3BrIP,BrC1(I)C=CP1,9,6,13075,276.839,"2-bromo-2-iodo-1,2-dihydrophosphete",N,BrC1(I)C=CP1,"InChI=1S/C3H3BrIP/c4-3(5)1-2-6-3/h1-2,6H",InChIKey=VVGXVCRHFYQTCV-UHFFFAOYSA-N,213.35,Pr,   213.35(BP est)     18.39(MP est)      ----(BP exp)      ----(MP exp)  BrC1(I)C=CP1 ,18.39,Pred,N
C3H3BrIP,BrC1C(I)=CP1,9,6,13076,276.839,"2-bromo-3-iodo-1,2-dihydrophosphete",N,BrC1C(I)=CP1,"InChI=1S/C3H3BrIP/c4-3-2(5)1-6-3/h1,3,6H",InChIKey=BOIHWRYSCDHPAT-UHFFFAOYSA-N,221.79,Pr,   221.79(BP est)     15.17(MP est)      ----(BP exp)      ----(MP exp)  BrC1C(I)=CP1 ,15.17,Pred,N
C3H3BrIP,BrC1C=C(I)P1,9,6,13077,276.839,"2-bromo-4-iodo-1,2-dihydrophosphete",N,BrC1C=C(I)P1,"InChI=1S/C3H3BrIP/c4-2-1-3(5)6-2/h1-2,6H",InChIKey=OJSCSKXOCRXUSM-UHFFFAOYSA-N,221.79,Pr,   221.79(BP est)     15.17(MP est)      ----(BP exp)      ----(MP exp)  BrC1C=C(I)P1 ,15.17,Pred,N
C3H3BrIP,IC1C(Br)=CP1,9,6,13078,276.839,"3-bromo-2-iodo-1,2-dihydrophosphete",N,IC1C(Br)=CP1,"InChI=1S/C3H3BrIP/c4-2-1-6-3(2)5/h1,3,6H",InChIKey=BDZNPHKLRWHALH-UHFFFAOYSA-N,221.79,Pr,   221.79(BP est)     15.17(MP est)      ----(BP exp)      ----(MP exp)  IC1C(Br)=CP1 ,15.17,Pred,N
C3H3BrIP,IC1=C(CP1)Br,9,6,13079,276.839,"3-bromo-4-iodo-1,2-dihydrophosphete",N,IC1=C(CP1)Br,"InChI=1S/C3H3BrIP/c4-2-1-6-3(2)5/h6H,1H2",InChIKey=VEWYBHFBXFYBRE-UHFFFAOYSA-N,225.63,Pr,   225.63(BP est)     24.67(MP est)      ----(BP exp)      ----(MP exp)  IC1=C(CP1)Br ,24.67,Pred,N
C3H3BrIP,IC1C=C(Br)P1,9,6,13080,276.839,"4-bromo-2-iodo-1,2-dihydrophosphete",N,IC1C=C(Br)P1,"InChI=1S/C3H3BrIP/c4-2-1-3(5)6-2/h1,3,6H",InChIKey=UIDXQGMJUQSNAN-UHFFFAOYSA-N,221.79,Pr,   221.79(BP est)     15.17(MP est)      ----(BP exp)      ----(MP exp)  IC1C=C(Br)P1 ,15.17,Pred,N
C3H3BrIP,BrC1=C(CP1)I,9,6,13081,276.839,"4-bromo-3-iodo-1,2-dihydrophosphete",N,BrC1=C(CP1)I,"InChI=1S/C3H3BrIP/c4-3-2(5)1-6-3/h6H,1H2",InChIKey=OIOAWPQHIWILRY-UHFFFAOYSA-N,225.63,Pr,   225.63(BP est)     24.67(MP est)      ----(BP exp)      ----(MP exp)  BrC1=C(CP1)I ,24.67,Pred,N
C2HBrIOP,O=PC(Br)=CI,7,6,13092,278.811,(1-bromo-2-iodovinyl)(oxo)phosphane,N,O=PC(Br)=CI,InChI=1S/C2HBrIOP/c3-2(1-4)6-5/h1H,InChIKey=QVHARDKDJSKARD-UHFFFAOYSA-N,252.01,Pr,   252.01(BP est)     18.91(MP est)      ----(BP exp)      ----(MP exp)  O=PC(Br)=CI ,18.91,Pred,N
C2HBrIOP,O=PC(I)=CBr,7,6,13093,278.811,(2-bromo-1-iodovinyl)(oxo)phosphane,N,O=PC(I)=CBr,InChI=1S/C2HBrIOP/c3-1-2(4)6-5/h1H,InChIKey=OHBZORLHMVDAKB-UHFFFAOYSA-N,252.01,Pr,   252.01(BP est)     18.91(MP est)      ----(BP exp)      ----(MP exp)  O=PC(I)=CBr ,18.91,Pred,N
C2HBrIOP,O=PC=C(Br)I,7,6,13094,278.811,(2-bromo-2-iodovinyl)(oxo)phosphane,N,O=PC=C(Br)I,InChI=1S/C2HBrIOP/c3-2(4)1-6-5/h1H,InChIKey=WHWLFEORFHCZOB-UHFFFAOYSA-N,252.01,Pr,   252.01(BP est)     18.91(MP est)      ----(BP exp)      ----(MP exp)  O=PC=C(Br)I ,18.91,Pred,N
C3H5BrIP,PC(C=C)(Br)I,11,6,13095,278.855,(1-bromo-1-iodoallyl)phosphane,N,PC(C=C)(Br)I,"InChI=1S/C3H5BrIP/c1-2-3(4,5)6/h2H,1,6H2",InChIKey=UVJJBJFIGGRKRN-UHFFFAOYSA-N,213.58,Pr,   213.58(BP est)      5.67(MP est)      ----(BP exp)      ----(MP exp)  PC(C=C)(Br)I ,5.67,Pred,N
C3H5BrIP,PC(Br)C(I)=C,11,6,13096,278.855,(1-bromo-2-iodoallyl)phosphane,N,PC(Br)C(I)=C,"InChI=1S/C3H5BrIP/c1-2(5)3(4)6/h3H,1,6H2",InChIKey=XKSVRGSBECFQRK-UHFFFAOYSA-N,215.95,Pr,   215.95(BP est)     -9.32(MP est)      ----(BP exp)      ----(MP exp)  PC(Br)C(I)=C ,-9.32,Pred,N
C3H5BrIP,CPC(Br)=CI,11,6,13097,278.855,(1-bromo-2-iodovinyl)(methyl)phosphane,N,CPC(Br)=CI,"InChI=1S/C3H5BrIP/c1-6-3(4)2-5/h2,6H,1H3",InChIKey=QSOAXBVMEUNRDZ-UHFFFAOYSA-N,218.37,Pr,   218.37(BP est)    -10.96(MP est)      ----(BP exp)      ----(MP exp)  CPC(Br)=CI ,-10.96,Pred,N
C3H5BrIP,PC(Br)C=CI,11,6,13098,278.855,(1-bromo-3-iodoallyl)phosphane,N,PC(Br)C=CI,"InChI=1S/C3H5BrIP/c4-3(6)1-2-5/h1-3H,6H2",InChIKey=YDVGSOCIKCXWDT-UHFFFAOYSA-N,228.33,Pr,   228.33(BP est)     -0.39(MP est)      ----(BP exp)      ----(MP exp)  PC(Br)C=CI ,-0.39,Pred,N
C3H5BrIP,ICPC(Br)=C,11,6,13099,278.855,(1-bromovinyl)(iodomethyl)phosphane,N,ICPC(Br)=C,"InChI=1S/C3H5BrIP/c1-3(4)6-2-5/h6H,1-2H2",InChIKey=DBPSLGNKHJLGAJ-UHFFFAOYSA-N,211.01,Pr,   211.01(BP est)    -11.45(MP est)      ----(BP exp)      ----(MP exp)  ICPC(Br)=C ,-11.45,Pred,N
C3H5BrIP,PC(I)C(Br)=C,11,6,13100,278.855,(2-bromo-1-iodoallyl)phosphane,N,PC(I)C(Br)=C,"InChI=1S/C3H5BrIP/c1-2(4)3(5)6/h3H,1,6H2",InChIKey=YCGBMLFZPVNWSI-UHFFFAOYSA-N,215.95,Pr,   215.95(BP est)     -9.32(MP est)      ----(BP exp)      ----(MP exp)  PC(I)C(Br)=C ,-9.32,Pred,N
C3H5BrIP,CPC(I)=CBr,11,6,13101,278.855,(2-bromo-1-iodovinyl)(methyl)phosphane,N,CPC(I)=CBr,"InChI=1S/C3H5BrIP/c1-6-3(5)2-4/h2,6H,1H3",InChIKey=CODJJVRRXADHDH-UHFFFAOYSA-N,218.37,Pr,   218.37(BP est)    -10.96(MP est)      ----(BP exp)      ----(MP exp)  CPC(I)=CBr ,-10.96,Pred,N
C3H5BrIP,CPC=C(Br)I,11,6,13102,278.855,(2-bromo-2-iodovinyl)(methyl)phosphane,N,CPC=C(Br)I,"InChI=1S/C3H5BrIP/c1-6-2-3(4)5/h2,6H,1H3",InChIKey=XUKNUYUINBHAMT-UHFFFAOYSA-N,218.37,Pr,   218.37(BP est)    -10.96(MP est)      ----(BP exp)      ----(MP exp)  CPC=C(Br)I ,-10.96,Pred,N
C3H5BrIP,PCC(Br)=CI,11,6,13103,278.855,(2-bromo-3-iodoallyl)phosphane,N,PCC(Br)=CI,"InChI=1S/C3H5BrIP/c4-3(1-5)2-6/h1H,2,6H2",InChIKey=DNNNVSNJDSTHSV-UHFFFAOYSA-N,234.41,Pr,   234.41(BP est)      1.90(MP est)      ----(BP exp)      ----(MP exp)  PCC(Br)=CI ,1.9,Pred,N
C3H5BrIP,ICPC=CBr,11,6,13104,278.855,(2-bromovinyl)(iodomethyl)phosphane,N,ICPC=CBr,"InChI=1S/C3H5BrIP/c4-1-2-6-3-5/h1-2,6H,3H2",InChIKey=YJXDPCHIGQFDGG-UHFFFAOYSA-N,223.53,Pr,   223.53(BP est)     -2.48(MP est)      ----(BP exp)      ----(MP exp)  ICPC=CBr ,-2.48,Pred,N
C3H5BrIP,PC(I)C=CBr,11,6,13105,278.855,(3-bromo-1-iodoallyl)phosphane,N,PC(I)C=CBr,"InChI=1S/C3H5BrIP/c4-2-1-3(5)6/h1-3H,6H2",InChIKey=OPTBJJXVOWVUEO-UHFFFAOYSA-N,228.33,Pr,   228.33(BP est)     -0.39(MP est)      ----(BP exp)      ----(MP exp)  PC(I)C=CBr ,-0.39,Pred,N
C3H5BrIP,PCC(I)=CBr,11,6,13106,278.855,(3-bromo-2-iodoallyl)phosphane,N,PCC(I)=CBr,"InChI=1S/C3H5BrIP/c4-1-3(5)2-6/h1H,2,6H2",InChIKey=SWTWAJHVJVEPNZ-UHFFFAOYSA-N,234.41,Pr,   234.41(BP est)      1.90(MP est)      ----(BP exp)      ----(MP exp)  PCC(I)=CBr ,1.9,Pred,N
C3H5BrIP,PCC=C(Br)I,11,6,13107,278.855,(3-bromo-3-iodoallyl)phosphane,N,PCC=C(Br)I,"InChI=1S/C3H5BrIP/c4-3(5)1-2-6/h1H,2,6H2",InChIKey=VUXSKPYVEQBWSJ-UHFFFAOYSA-N,234.41,Pr,   234.41(BP est)      1.90(MP est)      ----(BP exp)      ----(MP exp)  PCC=C(Br)I ,1.9,Pred,N
C3H5BrIP,BrC(PC=C)I,11,6,13108,278.855,(bromoiodomethyl)(vinyl)phosphane,N,BrC(PC=C)I,"InChI=1S/C3H5BrIP/c1-2-6-3(4)5/h2-3,6H,1H2",InChIKey=PGTDMHQSWCSCAQ-UHFFFAOYSA-N,204.55,Pr,   204.55(BP est)    -13.86(MP est)      ----(BP exp)      ----(MP exp)  BrC(PC=C)I ,-13.86,Pred,N
C3H5BrIP,BrCPC(I)=C,11,6,13109,278.855,(bromomethyl)(1-iodovinyl)phosphane,N,BrCPC(I)=C,"InChI=1S/C3H5BrIP/c1-3(5)6-2-4/h6H,1-2H2",InChIKey=JODCLLRCONAAMQ-UHFFFAOYSA-N,211.01,Pr,   211.01(BP est)    -11.45(MP est)      ----(BP exp)      ----(MP exp)  BrCPC(I)=C ,-11.45,Pred,N
C3H5BrIP,BrCPC=CI,11,6,13110,278.855,(bromomethyl)(2-iodovinyl)phosphane,N,BrCPC=CI,"InChI=1S/C3H5BrIP/c4-3-6-2-1-5/h1-2,6H,3H2",InChIKey=ORGBROQMFVWHEW-UHFFFAOYSA-N,223.53,Pr,   223.53(BP est)     -2.48(MP est)      ----(BP exp)      ----(MP exp)  BrCPC=CI ,-2.48,Pred,N
C3H5BrIP,BrC(P1CC1)I,11,6,13111,278.855,1-(bromoiodomethyl)phosphirane,N,BrC(P1CC1)I,"InChI=1S/C3H5BrIP/c4-3(5)6-1-2-6/h3H,1-2H2",InChIKey=UJDJJMHKXACVFR-UHFFFAOYSA-N,213.97,Pr,   213.97(BP est)      1.94(MP est)      ----(BP exp)      ----(MP exp)  BrC(P1CC1)I ,1.94,Pred,N
C3H5BrIP,BrCP1C(I)C1,11,6,13112,278.855,1-(bromomethyl)-2-iodophosphirane,N,BrCP1C(I)C1,"InChI=1S/C3H5BrIP/c4-2-6-1-3(6)5/h3H,1-2H2",InChIKey=ZSJOLGFVKXYEPD-UHFFFAOYSA-N,219.95,Pr,   219.95(BP est)      9.06(MP est)      ----(BP exp)      ----(MP exp)  BrCP1C(I)C1 ,9.06,Pred,N
C3H5BrIP,ICP1C(Br)C1,11,6,13113,278.855,2-bromo-1-(iodomethyl)phosphirane,N,ICP1C(Br)C1,"InChI=1S/C3H5BrIP/c4-3-1-6(3)2-5/h3H,1-2H2",InChIKey=CTSCOUKJAUVHLU-UHFFFAOYSA-N,219.95,Pr,   219.95(BP est)      9.06(MP est)      ----(BP exp)      ----(MP exp)  ICP1C(Br)C1 ,9.06,Pred,N
C3H5BrIP,CP1C(I)(Br)C1,11,6,13114,278.855,2-bromo-2-iodo-1-methylphosphirane,N,CP1C(I)(Br)C1,"InChI=1S/C3H5BrIP/c1-6-2-3(6,4)5/h2H2,1H3",InChIKey=IHBPIBYKBQJALM-UHFFFAOYSA-N,209.81,Pr,   209.81(BP est)     18.05(MP est)      ----(BP exp)      ----(MP exp)  CP1C(I)(Br)C1 ,18.05,Pred,N
C3H5BrIP,BrC1(I)CCP1,11,6,13115,278.855,2-bromo-2-iodophosphetane,N,BrC1(I)CCP1,"InChI=1S/C3H5BrIP/c4-3(5)1-2-6-3/h6H,1-2H2",InChIKey=FLDVMKUCTZGXBH-UHFFFAOYSA-N,210.81,Pr,   210.81(BP est)     17.27(MP est)      ----(BP exp)      ----(MP exp)  BrC1(I)CCP1 ,17.27,Pred,N
C3H5BrIP,CP1C(I)C1Br,11,6,13116,278.855,2-bromo-3-iodo-1-methylphosphirane,N,CP1C(I)C1Br,"InChI=1S/C3H5BrIP/c1-6-2(4)3(6)5/h2-3H,1H3",InChIKey=PEVVZTRFFUYSMJ-UHFFFAOYSA-N,214.41,Pr,   214.41(BP est)      5.33(MP est)      ----(BP exp)      ----(MP exp)  CP1C(I)C1Br ,5.33,Pred,N
C3H5BrIP,BrC1C(I)CP1,11,6,13117,278.855,2-bromo-3-iodophosphetane,N,BrC1C(I)CP1,"InChI=1S/C3H5BrIP/c4-3-2(5)1-6-3/h2-3,6H,1H2",InChIKey=AOMVHLGYLUPSBJ-UHFFFAOYSA-N,215.4,Pr,   215.40(BP est)      4.54(MP est)      ----(BP exp)      ----(MP exp)  BrC1C(I)CP1 ,4.54,Pred,N
C3H5BrIP,BrC1CC(I)P1,11,6,13118,278.855,2-bromo-4-iodophosphetane,N,BrC1CC(I)P1,"InChI=1S/C3H5BrIP/c4-2-1-3(5)6-2/h2-3,6H,1H2",InChIKey=OHZMMVPGPJYYPY-UHFFFAOYSA-N,215.4,Pr,   215.40(BP est)      4.54(MP est)      ----(BP exp)      ----(MP exp)  BrC1CC(I)P1 ,4.54,Pred,N
C3H5BrIP,IC1C(Br)CP1,11,6,13119,278.855,3-bromo-2-iodophosphetane,N,IC1C(Br)CP1,"InChI=1S/C3H5BrIP/c4-2-1-6-3(2)5/h2-3,6H,1H2",InChIKey=NFGTWXCXGPGXJQ-UHFFFAOYSA-N,215.4,Pr,   215.40(BP est)      4.54(MP est)      ----(BP exp)      ----(MP exp)  IC1C(Br)CP1 ,4.54,Pred,N
C3H5BrIP,BrC1(I)CPC1,11,6,13120,278.855,3-bromo-3-iodophosphetane,N,BrC1(I)CPC1,"InChI=1S/C3H5BrIP/c4-3(5)1-6-2-3/h6H,1-2H2",InChIKey=NFIHSGZMYQXXMI-UHFFFAOYSA-N,210.81,Pr,   210.81(BP est)     17.27(MP est)      ----(BP exp)      ----(MP exp)  BrC1(I)CPC1 ,17.27,Pred,N
C2H3BrIOP,O=PC(C)(Br)I,9,6,13138,280.827,(1-bromo-1-iodoethyl)(oxo)phosphane,N,O=PC(C)(Br)I,"InChI=1S/C2H3BrIOP/c1-2(3,4)6-5/h1H3",InChIKey=PCWTZWVVJRERNJ-UHFFFAOYSA-N,233.54,Pr,   233.54(BP est)     24.25(MP est)      ----(BP exp)      ----(MP exp)  O=PC(C)(Br)I ,24.25,Pred,N
C2H3BrIOP,O=PC(Br)CI,9,6,13139,280.827,(1-bromo-2-iodoethyl)(oxo)phosphane,N,O=PC(Br)CI,"InChI=1S/C2H3BrIOP/c3-2(1-4)6-5/h2H,1H2",InChIKey=IWWVOGZACUERRZ-UHFFFAOYSA-N,240.73,Pr,   240.73(BP est)     17.64(MP est)      ----(BP exp)      ----(MP exp)  O=PC(Br)CI ,17.64,Pred,N
C2H3BrIOP,O=PC(I)CBr,9,6,13140,280.827,(2-bromo-1-iodoethyl)(oxo)phosphane,N,O=PC(I)CBr,"InChI=1S/C2H3BrIOP/c3-1-2(4)6-5/h2H,1H2",InChIKey=KYZTVMDDYATARP-UHFFFAOYSA-N,240.73,Pr,   240.73(BP est)     17.64(MP est)      ----(BP exp)      ----(MP exp)  O=PC(I)CBr ,17.64,Pred,N
C2H3BrIOP,O=PCC(Br)I,9,6,13141,280.827,(2-bromo-2-iodoethyl)(oxo)phosphane,N,O=PCC(Br)I,"InChI=1S/C2H3BrIOP/c3-2(4)1-6-5/h2H,1H2",InChIKey=XSDUQSGMYDXZKX-UHFFFAOYSA-N,240.73,Pr,   240.73(BP est)     17.64(MP est)      ----(BP exp)      ----(MP exp)  O=PCC(Br)I ,17.64,Pred,N
C2H3BrIOP,O=P1C(I)(Br)C1,9,6,13142,280.827,2-bromo-2-iodophosphirane 1-oxide,N,O=P1C(I)(Br)C1,"InChI=1S/C2H3BrIOP/c3-2(4)1-6(2)5/h6H,1H2",InChIKey=BSBRLUFWNVSEHF-UHFFFAOYSA-N,241.83,Pr,   241.83(BP est)     39.95(MP est)      ----(BP exp)      ----(MP exp)  O=P1C(I)(Br)C1 ,39.95,Pred,N
C2H3BrIOP,O=P1C(I)C1Br,9,6,13143,280.827,2-bromo-3-iodophosphirane 1-oxide,N,O=P1C(I)C1Br,"InChI=1S/C2H3BrIOP/c3-1-2(4)6(1)5/h1-2,6H",InChIKey=NCUYRGWRBXNRCK-UHFFFAOYSA-N,246.06,Pr,   246.06(BP est)     27.12(MP est)      ----(BP exp)      ----(MP exp)  O=P1C(I)C1Br ,27.12,Pred,N
C3H7BrIP,CPC(C)(Br)I,13,6,13144,280.871,(1-bromo-1-iodoethyl)(methyl)phosphane,N,CPC(C)(Br)I,"InChI=1S/C3H7BrIP/c1-3(4,5)6-2/h6H,1-2H3",InChIKey=CFDITQMKQIMAHA-UHFFFAOYSA-N,198.17,Pr,   198.17(BP est)     -6.13(MP est)      ----(BP exp)      ----(MP exp)  CPC(C)(Br)I ,-6.13,Pred,N
C3H7BrIP,PC(CC)(Br)I,13,6,13145,280.871,(1-bromo-1-iodopropyl)phosphane,N,PC(CC)(Br)I,"InChI=1S/C3H7BrIP/c1-2-3(4,5)6/h2,6H2,1H3",InChIKey=PLZOEMYDULEQIJ-UHFFFAOYSA-N,215.02,Pr,   215.02(BP est)      6.97(MP est)      ----(BP exp)      ----(MP exp)  PC(CC)(Br)I ,6.97,Pred,N
C3H7BrIP,CPC(Br)CI,13,6,13146,280.871,(1-bromo-2-iodoethyl)(methyl)phosphane,N,CPC(Br)CI,"InChI=1S/C3H7BrIP/c1-6-3(4)2-5/h3,6H,2H2,1H3",InChIKey=GKVITBCYLOHHML-UHFFFAOYSA-N,206.02,Pr,   206.02(BP est)    -12.55(MP est)      ----(BP exp)      ----(MP exp)  CPC(Br)CI ,-12.55,Pred,N
C3H7BrIP,PC(Br)C(I)C,13,6,13147,280.871,(1-bromo-2-iodopropyl)phosphane,N,PC(Br)C(I)C,"InChI=1S/C3H7BrIP/c1-2(5)3(4)6/h2-3H,6H2,1H3",InChIKey=DDEXXQBJGOXOFB-UHFFFAOYSA-N,211.03,Pr,   211.03(BP est)    -10.40(MP est)      ----(BP exp)      ----(MP exp)  PC(Br)C(I)C ,-10.4,Pred,N
C3H7BrIP,PC(Br)CCI,13,6,13148,280.871,(1-bromo-3-iodopropyl)phosphane,N,PC(Br)CCI,"InChI=1S/C3H7BrIP/c4-3(6)1-2-5/h3H,1-2,6H2",InChIKey=CIKVPZZPJZTTCH-UHFFFAOYSA-N,222.56,Pr,   222.56(BP est)      0.47(MP est)      ----(BP exp)      ----(MP exp)  PC(Br)CCI ,0.47,Pred,N
C3H7BrIP,ICPC(Br)C,13,6,13149,280.871,(1-bromoethyl)(iodomethyl)phosphane,N,ICPC(Br)C,"InChI=1S/C3H7BrIP/c1-3(4)6-2-5/h3,6H,2H2,1H3",InChIKey=PDHKDGFPAMLWFG-UHFFFAOYSA-N,206.02,Pr,   206.02(BP est)    -12.55(MP est)      ----(BP exp)      ----(MP exp)  ICPC(Br)C ,-12.55,Pred,N
C3H7BrIP,CPC(I)CBr,13,6,13150,280.871,(2-bromo-1-iodoethyl)(methyl)phosphane,N,CPC(I)CBr,"InChI=1S/C3H7BrIP/c1-6-3(5)2-4/h3,6H,2H2,1H3",InChIKey=PDUWPHUXYCZMIN-UHFFFAOYSA-N,206.02,Pr,   206.02(BP est)    -12.55(MP est)      ----(BP exp)      ----(MP exp)  CPC(I)CBr ,-12.55,Pred,N
C3H7BrIP,PC(I)C(Br)C,13,6,13151,280.871,(2-bromo-1-iodopropyl)phosphane,N,PC(I)C(Br)C,"InChI=1S/C3H7BrIP/c1-2(4)3(5)6/h2-3H,6H2,1H3",InChIKey=RAPPVAJMUHJJMH-UHFFFAOYSA-N,211.03,Pr,   211.03(BP est)    -10.40(MP est)      ----(BP exp)      ----(MP exp)  PC(I)C(Br)C ,-10.4,Pred,N
C3H7BrIP,CPCC(Br)I,13,6,13152,280.871,(2-bromo-2-iodoethyl)(methyl)phosphane,N,CPCC(Br)I,"InChI=1S/C3H7BrIP/c1-6-2-3(4)5/h3,6H,2H2,1H3",InChIKey=ZXUPQBSKSIHQBE-UHFFFAOYSA-N,206.02,Pr,   206.02(BP est)    -12.55(MP est)      ----(BP exp)      ----(MP exp)  CPCC(Br)I ,-12.55,Pred,N
C3H7BrIP,PCC(C)(Br)I,13,6,13153,280.871,(2-bromo-2-iodopropyl)phosphane,N,PCC(C)(Br)I,"InChI=1S/C3H7BrIP/c1-3(4,5)2-6/h2,6H2,1H3",InChIKey=KBTITRWWEPVRCS-UHFFFAOYSA-N,215.02,Pr,   215.02(BP est)      6.97(MP est)      ----(BP exp)      ----(MP exp)  PCC(C)(Br)I ,6.97,Pred,N
C3H7BrIP,PCC(Br)CI,13,6,13154,280.871,(2-bromo-3-iodopropyl)phosphane,N,PCC(Br)CI,"InChI=1S/C3H7BrIP/c4-3(1-5)2-6/h3H,1-2,6H2",InChIKey=CMZKXGXHJKXACW-UHFFFAOYSA-N,222.56,Pr,   222.56(BP est)      0.47(MP est)      ----(BP exp)      ----(MP exp)  PCC(Br)CI ,0.47,Pred,N
C3H7BrIP,ICPCCBr,13,6,13155,280.871,(2-bromoethyl)(iodomethyl)phosphane,N,ICPCCBr,"InChI=1S/C3H7BrIP/c4-1-2-6-3-5/h6H,1-3H2",InChIKey=SILLARRMJQSYFT-UHFFFAOYSA-N,217.7,Pr,   217.70(BP est)     -1.64(MP est)      ----(BP exp)      ----(MP exp)  ICPCCBr ,-1.64,Pred,N
C3H7BrIP,PC(I)CCBr,13,6,13156,280.871,(3-bromo-1-iodopropyl)phosphane,N,PC(I)CCBr,"InChI=1S/C3H7BrIP/c4-2-1-3(5)6/h3H,1-2,6H2",InChIKey=COJPJKGMJFGGOE-UHFFFAOYSA-N,222.56,Pr,   222.56(BP est)      0.47(MP est)      ----(BP exp)      ----(MP exp)  PC(I)CCBr ,0.47,Pred,N
C3H7BrIP,PCC(I)CBr,13,6,13157,280.871,(3-bromo-2-iodopropyl)phosphane,N,PCC(I)CBr,"InChI=1S/C3H7BrIP/c4-1-3(5)2-6/h3H,1-2,6H2",InChIKey=CSPJSKYRKJKLJL-UHFFFAOYSA-N,222.56,Pr,   222.56(BP est)      0.47(MP est)      ----(BP exp)      ----(MP exp)  PCC(I)CBr ,0.47,Pred,N
C3H7BrIP,PCCC(Br)I,13,6,13158,280.871,(3-bromo-3-iodopropyl)phosphane,N,PCCC(Br)I,"InChI=1S/C3H7BrIP/c4-3(5)1-2-6/h3H,1-2,6H2",InChIKey=KPNHTHLCZULOST-UHFFFAOYSA-N,222.56,Pr,   222.56(BP est)      0.47(MP est)      ----(BP exp)      ----(MP exp)  PCCC(Br)I ,0.47,Pred,N
C3H7BrIP,BrC(PCC)I,13,6,13159,280.871,(bromoiodomethyl)(ethyl)phosphane,N,BrC(PCC)I,"InChI=1S/C3H7BrIP/c1-2-6-3(4)5/h3,6H,2H2,1H3",InChIKey=VZRMERXOBIEJAJ-UHFFFAOYSA-N,206.02,Pr,   206.02(BP est)    -12.55(MP est)      ----(BP exp)      ----(MP exp)  BrC(PCC)I ,-12.55,Pred,N