Formula,SMILES,Tot_atoms,Tot_nH_atoms,Dataset_no,Molecular_weight,IUPAC_chemname,Metalloid,EPISUITE,InChI_Code,InChI_Key,Boiling_Point,BP_basis,EPIsuite_output,MP,Basis,Life
C3H8IP,CPC(C)I,13,5,10760,201.975,(1-iodoethyl)(methyl)phosphane,N,CPC(C)I,"InChI=1S/C3H8IP/c1-3(4)5-2/h3,5H,1-2H3",InChIKey=DLDVUYPXUHXQLT-UHFFFAOYSA-N,137.62,Pr,   137.62(BP est)    -62.42(MP est)      ----(BP exp)      ----(MP exp)  CPC(C)I ,-62.42,Pred,N
C3H8IP,CC(P)CI,13,5,10761,201.975,(1-iodopropan-2-yl)phosphane,N,CC(P)CI,"InChI=1S/C3H8IP/c1-3(5)2-4/h3H,2,5H2,1H3",InChIKey=HFPUIFYIGMNYJR-UHFFFAOYSA-N,156.67,Pr,   156.67(BP est)    -48.67(MP est)      ----(BP exp)      ----(MP exp)  CC(P)CI ,-48.67,Pred,N
C3H8IP,IC(P)CC,13,5,10762,201.975,(1-iodopropyl)phosphane,N,IC(P)CC,"InChI=1S/C3H8IP/c1-2-3(4)5/h3H,2,5H2,1H3",InChIKey=IKTROQYJMZAHFY-UHFFFAOYSA-N,156.67,Pr,   156.67(BP est)    -48.67(MP est)      ----(BP exp)      ----(MP exp)  IC(P)CC ,-48.67,Pred,N
C3H8IP,CPCCI,13,5,10763,201.975,(2-iodoethyl)(methyl)phosphane,N,CPCCI,"InChI=1S/C3H8IP/c1-5-3-2-4/h5H,2-3H2,1H3",InChIKey=OQDAYLYOWACAMQ-UHFFFAOYSA-N,151.05,Pr,   151.05(BP est)    -51.00(MP est)      ----(BP exp)      ----(MP exp)  CPCCI ,-51,Pred,N
C3H8IP,IC(C)(P)C,13,5,10764,201.975,(2-iodopropan-2-yl)phosphane,N,IC(C)(P)C,"InChI=1S/C3H8IP/c1-3(2,4)5/h5H2,1-2H3",InChIKey=FHWCCNVRJVYUOX-UHFFFAOYSA-N,147.96,Pr,   147.96(BP est)    -42.50(MP est)      ----(BP exp)      ----(MP exp)  IC(C)(P)C ,-42.5,Pred,N
C3H8IP,IC(C)CP,13,5,10765,201.975,(2-iodopropyl)phosphane,N,IC(C)CP,"InChI=1S/C3H8IP/c1-3(4)2-5/h3H,2,5H2,1H3",InChIKey=DDOUQQJPGZLQTN-UHFFFAOYSA-N,156.67,Pr,   156.67(BP est)    -48.67(MP est)      ----(BP exp)      ----(MP exp)  IC(C)CP ,-48.67,Pred,N
C3H8IP,PCCCI,13,5,10766,201.975,(3-iodopropyl)phosphane,N,PCCCI,"InChI=1S/C3H8IP/c4-2-1-3-5/h1-3,5H2",InChIKey=JFIKRWXTDCELJI-UHFFFAOYSA-N,169.64,Pr,   169.64(BP est)    -37.38(MP est)      ----(BP exp)      ----(MP exp)  PCCCI ,-37.38,Pred,N
C3H8IP,CP(CI)C,13,5,10767,201.975,(iodomethyl)dimethylphosphane,N,CP(CI)C,"InChI=1S/C3H8IP/c1-5(2)3-4/h3H2,1-2H3",InChIKey=GLPIKWZMSIXGIN-UHFFFAOYSA-N,151.94,Pr,   151.94(BP est)    -51.42(MP est)      ----(BP exp)      ----(MP exp)  CP(CI)C ,-51.42,Pred,N
C3H8IP,ICPCC,13,5,10768,201.975,ethyl(iodomethyl)phosphane,N,ICPCC,"InChI=1S/C3H8IP/c1-2-5-3-4/h5H,2-3H2,1H3",InChIKey=HPDKHTLNABBXJL-UHFFFAOYSA-N,151.05,Pr,   151.05(BP est)    -51.00(MP est)      ----(BP exp)      ----(MP exp)  ICPCC ,-51,Pred,N
C2H3FIP,PC(F)=CI,8,5,10858,203.923,(1-fluoro-2-iodovinyl)phosphane,N,PC(F)=CI,"InChI=1S/C2H3FIP/c3-2(5)1-4/h1H,5H2",InChIKey=VIHQYRXEQYANSE-UHFFFAOYSA-N,150.88,Pr,   150.88(BP est)    -57.72(MP est)      ----(BP exp)      ----(MP exp)  PC(F)=CI ,-57.72,Pred,N
C2H3FIP,PC(I)=CF,8,5,10859,203.923,(2-fluoro-1-iodovinyl)phosphane,N,PC(I)=CF,"InChI=1S/C2H3FIP/c3-1-2(4)5/h1H,5H2",InChIKey=JTZXPSYKLBITSI-UHFFFAOYSA-N,150.88,Pr,   150.88(BP est)    -57.72(MP est)      ----(BP exp)      ----(MP exp)  PC(I)=CF ,-57.72,Pred,N
C2H3FIP,PC=C(F)I,8,5,10860,203.923,(2-fluoro-2-iodovinyl)phosphane,N,PC=C(F)I,"InChI=1S/C2H3FIP/c3-2(4)1-5/h1H,5H2",InChIKey=FHUWKSGPTWXAAU-UHFFFAOYSA-N,150.88,Pr,   150.88(BP est)    -57.72(MP est)      ----(BP exp)      ----(MP exp)  PC=C(F)I ,-57.72,Pred,N
C2H3FIP,FC1(I)CP1,8,5,10861,203.923,2-fluoro-2-iodophosphirane,N,FC1(I)CP1,"InChI=1S/C2H3FIP/c3-2(4)1-5-2/h5H,1H2",InChIKey=CKGZBLJLPIJBPJ-UHFFFAOYSA-N,120.47,Pr,   120.47(BP est)    -42.58(MP est)      ----(BP exp)      ----(MP exp)  FC1(I)CP1 ,-42.58,Pred,N
C2H3FIP,IC1C(F)P1,8,5,10862,203.923,2-fluoro-3-iodophosphirane,N,IC1C(F)P1,"InChI=1S/C2H3FIP/c3-1-2(4)5-1/h1-2,5H",InChIKey=NURSTPQVCULVNG-UHFFFAOYSA-N,125.97,Pr,   125.97(BP est)    -55.05(MP est)      ----(BP exp)      ----(MP exp)  IC1C(F)P1 ,-55.05,Pred,N
C2H6IOP,ICPOC,11,5,10864,203.947,(iodomethyl)(methoxy)phosphane,N,ICPOC,"InChI=1S/C2H6IOP/c1-4-5-2-3/h5H,2H2,1H3",InChIKey=HOIUSJQYDKIVGR-UHFFFAOYSA-N,151.91,Pr,   151.91(BP est)    -45.27(MP est)      ----(BP exp)      ----(MP exp)  ICPOC ,-45.27,Pred,N
C2H6IOP,O=P(C)CI,11,5,10865,203.947,(iodomethyl)(methyl)phosphine oxide,N,O=P(C)CI,"InChI=1S/C2H6IOP/c1-5(4)2-3/h5H,2H2,1H3",InChIKey=SHTPDUNGUIJTHO-UHFFFAOYSA-N,188.28,Pr,   188.28(BP est)    -28.26(MP est)      ----(BP exp)      ----(MP exp)  O=P(C)CI ,-28.26,Pred,N
CHFIOP,O=PC(F)I,6,5,10961,205.895,(fluoroiodomethyl)(oxo)phosphane,N,O=PC(F)I,InChI=1S/CHFIOP/c2-1(3)5-4/h1H,InChIKey=ZCXQKAGNEYAPQT-UHFFFAOYSA-N,158.51,Pr,   158.51(BP est)    -41.61(MP est)      ----(BP exp)      ----(MP exp)  O=PC(F)I ,-41.61,Pred,N
CH4IO2P,O=P(CI)O,9,5,10962,205.919,(iodomethyl)phosphinic acid,N,O=P(CI)O,"InChI=1S/CH4IO2P/c2-1-5(3)4/h5H,1H2,(H,3,4)",InChIKey=QJISEFAXFSQIOX-UHFFFAOYSA-N,253.93,Pr,   253.93(BP est)     15.68(MP est)      ----(BP exp)      ----(MP exp)  O=P(CI)O ,15.68,Pred,N
C2H5FIP,PC(C)(F)I,10,5,10966,205.939,(1-fluoro-1-iodoethyl)phosphane,N,PC(C)(F)I,"InChI=1S/C2H5FIP/c1-2(3,4)5/h5H2,1H3",InChIKey=QZSJLEGWTGVNRH-UHFFFAOYSA-N,127.61,Pr,   127.61(BP est)    -53.78(MP est)      ----(BP exp)      ----(MP exp)  PC(C)(F)I ,-53.78,Pred,N
C2H5FIP,PC(F)CI,10,5,10967,205.939,(1-fluoro-2-iodoethyl)phosphane,N,PC(F)CI,"InChI=1S/C2H5FIP/c3-2(5)1-4/h2H,1,5H2",InChIKey=MLUBZNATVZEBJG-UHFFFAOYSA-N,136.65,Pr,   136.65(BP est)    -59.86(MP est)      ----(BP exp)      ----(MP exp)  PC(F)CI ,-59.86,Pred,N
C2H5FIP,PC(I)CF,10,5,10968,205.939,(2-fluoro-1-iodoethyl)phosphane,N,PC(I)CF,"InChI=1S/C2H5FIP/c3-1-2(4)5/h2H,1,5H2",InChIKey=NQVAGHBWHXXRGA-UHFFFAOYSA-N,136.65,Pr,   136.65(BP est)    -59.86(MP est)      ----(BP exp)      ----(MP exp)  PC(I)CF ,-59.86,Pred,N
C2H5FIP,PCC(F)I,10,5,10969,205.939,(2-fluoro-2-iodoethyl)phosphane,N,PCC(F)I,"InChI=1S/C2H5FIP/c3-2(4)1-5/h2H,1,5H2",InChIKey=WUHLPJKHXYQBOF-UHFFFAOYSA-N,136.65,Pr,   136.65(BP est)    -59.86(MP est)      ----(BP exp)      ----(MP exp)  PCC(F)I ,-59.86,Pred,N
C2H5FIP,CPC(F)I,10,5,10970,205.939,(fluoroiodomethyl)(methyl)phosphane,N,CPC(F)I,"InChI=1S/C2H5FIP/c1-5-2(3)4/h2,5H,1H3",InChIKey=UFMRAAFUMPDJPA-UHFFFAOYSA-N,116.89,Pr,   116.89(BP est)    -73.81(MP est)      ----(BP exp)      ----(MP exp)  CPC(F)I ,-73.81,Pred,N
C2H5FIP,ICPCF,10,5,10971,205.939,(fluoromethyl)(iodomethyl)phosphane,N,ICPCF,"InChI=1S/C2H5FIP/c3-1-5-2-4/h5H,1-2H2",InChIKey=MQJLHHFCBVFGEM-UHFFFAOYSA-N,130.82,Pr,   130.82(BP est)    -62.24(MP est)      ----(BP exp)      ----(MP exp)  ICPCF ,-62.24,Pred,N
CH2F2IP,PC(I)(F)F,7,5,11061,209.902,(difluoroiodomethyl)phosphane,N,PC(I)(F)F,"InChI=1S/CH2F2IP/c2-1(3,4)5/h5H2",InChIKey=VJZJPUCIPWTVOZ-UHFFFAOYSA-N,106.53,Pr,   106.53(BP est)    -65.28(MP est)      ----(BP exp)      ----(MP exp)  PC(I)(F)F ,-65.28,Pred,N
C2H3Br2P,PC(Br)=CBr,8,5,11634,217.828,"(1,2-dibromovinyl)phosphane",N,PC(Br)=CBr,"InChI=1S/C2H3Br2P/c3-1-2(4)5/h1H,5H2",InChIKey=VLPKOHNXFRZFIN-UHFFFAOYSA-N,186.67,Pr,   186.67(BP est)    -16.80(MP est)      ----(BP exp)      ----(MP exp)  PC(Br)=CBr ,-16.8,Pred,N
C2H3Br2P,PC=C(Br)Br,8,5,11635,217.828,"(2,2-dibromovinyl)phosphane",N,PC=C(Br)Br,"InChI=1S/C2H3Br2P/c3-2(4)1-5/h1H,5H2",InChIKey=BAXCIADHPCPNCW-UHFFFAOYSA-N,186.67,Pr,   186.67(BP est)    -16.80(MP est)      ----(BP exp)      ----(MP exp)  PC=C(Br)Br ,-16.8,Pred,N
C2H3Br2P,BrC1(Br)CP1,8,5,11636,217.828,"2,2-dibromophosphirane",N,BrC1(Br)CP1,"InChI=1S/C2H3Br2P/c3-2(4)1-5-2/h5H,1H2",InChIKey=CJOBVBJLMBMJTA-UHFFFAOYSA-N,158.31,Pr,   158.31(BP est)     -1.06(MP est)      ----(BP exp)      ----(MP exp)  BrC1(Br)CP1 ,-1.06,Pred,N
C2H3Br2P,BrC1C(Br)P1,8,5,11637,217.828,"2,3-dibromophosphirane",N,BrC1C(Br)P1,"InChI=1S/C2H3Br2P/c3-1-2(4)5-1/h1-2,5H",InChIKey=URRYXVVDSOZWFN-UHFFFAOYSA-N,163.45,Pr,   163.45(BP est)    -13.63(MP est)      ----(BP exp)      ----(MP exp)  BrC1C(Br)P1 ,-13.63,Pred,N
CHBr2OP,O=PC(Br)Br,6,5,11860,219.8,(dibromomethyl)(oxo)phosphane,N,O=PC(Br)Br,InChI=1S/CHBr2OP/c2-1(3)5-4/h1H,InChIKey=FEKKRTKNVDYFNQ-UHFFFAOYSA-N,193.77,Pr,   193.77(BP est)     -0.84(MP est)      ----(BP exp)      ----(MP exp)  O=PC(Br)Br ,-0.84,Pred,N
C2H5Br2P,PC(C)(Br)Br,10,5,11864,219.844,"(1,1-dibromoethyl)phosphane",N,PC(C)(Br)Br,"InChI=1S/C2H5Br2P/c1-2(3,4)5/h5H2,1H3",InChIKey=DFWOBXKOLCSANL-UHFFFAOYSA-N,164.98,Pr,   164.98(BP est)    -12.40(MP est)      ----(BP exp)      ----(MP exp)  PC(C)(Br)Br ,-12.4,Pred,N
C2H5Br2P,PC(Br)CBr,10,5,11865,219.844,"(1,2-dibromoethyl)phosphane",N,PC(Br)CBr,"InChI=1S/C2H5Br2P/c3-1-2(4)5/h2H,1,5H2",InChIKey=WEVUFIVPLKZIAN-UHFFFAOYSA-N,173.41,Pr,   173.41(BP est)    -18.65(MP est)      ----(BP exp)      ----(MP exp)  PC(Br)CBr ,-18.65,Pred,N
C2H5Br2P,PCC(Br)Br,10,5,11866,219.844,"(2,2-dibromoethyl)phosphane",N,PCC(Br)Br,"InChI=1S/C2H5Br2P/c3-2(4)1-5/h2H,1,5H2",InChIKey=DSTNNXPLSDARII-UHFFFAOYSA-N,173.41,Pr,   173.41(BP est)    -18.65(MP est)      ----(BP exp)      ----(MP exp)  PCC(Br)Br ,-18.65,Pred,N
C2H5Br2P,CPC(Br)Br,10,5,11867,219.844,(dibromomethyl)(methyl)phosphane,N,CPC(Br)Br,"InChI=1S/C2H5Br2P/c1-5-2(3)4/h2,5H,1H3",InChIKey=YUMRDIXHPSSLET-UHFFFAOYSA-N,154.96,Pr,   154.96(BP est)    -32.22(MP est)      ----(BP exp)      ----(MP exp)  CPC(Br)Br ,-32.22,Pred,N
C2H5Br2P,BrCPCBr,10,5,11868,219.844,bis(bromomethyl)phosphane,N,BrCPCBr,"InChI=1S/C2H5Br2P/c3-1-5-2-4/h5H,1-2H2",InChIKey=RSAMNSKFGHJFAF-UHFFFAOYSA-N,167.97,Pr,   167.97(BP est)    -20.92(MP est)      ----(BP exp)      ----(MP exp)  BrCPCBr ,-20.92,Pred,N
C2H3ClIP,PC(Cl)=CI,8,5,11946,220.374,(1-chloro-2-iodovinyl)phosphane,N,PC(Cl)=CI,"InChI=1S/C2H3ClIP/c3-2(5)1-4/h1H,5H2",InChIKey=AAODIOWDCFFWIU-UHFFFAOYSA-N,180.87,Pr,   180.87(BP est)    -34.30(MP est)      ----(BP exp)      ----(MP exp)  PC(Cl)=CI ,-34.3,Pred,N
C2H3ClIP,PC(I)=CCl,8,5,11947,220.374,(2-chloro-1-iodovinyl)phosphane,N,PC(I)=CCl,"InChI=1S/C2H3ClIP/c3-1-2(4)5/h1H,5H2",InChIKey=VASCQAMCBAEPPF-UHFFFAOYSA-N,180.87,Pr,   180.87(BP est)    -34.30(MP est)      ----(BP exp)      ----(MP exp)  PC(I)=CCl ,-34.3,Pred,N
C2H3ClIP,PC=C(Cl)I,8,5,11948,220.374,(2-chloro-2-iodovinyl)phosphane,N,PC=C(Cl)I,"InChI=1S/C2H3ClIP/c3-2(4)1-5/h1H,5H2",InChIKey=FIQMNNIDIORPNY-UHFFFAOYSA-N,180.87,Pr,   180.87(BP est)    -34.30(MP est)      ----(BP exp)      ----(MP exp)  PC=C(Cl)I ,-34.3,Pred,N
C2H3ClIP,ClC1(I)CP1,8,5,11949,220.374,2-chloro-2-iodophosphirane,N,ClC1(I)CP1,"InChI=1S/C2H3ClIP/c3-2(4)1-5-2/h5H,1H2",InChIKey=ARIBTBBDYAOFCC-UHFFFAOYSA-N,154.11,Pr,   154.11(BP est)    -18.10(MP est)      ----(BP exp)      ----(MP exp)  ClC1(I)CP1 ,-18.1,Pred,N
C2H3ClIP,ClC1C(I)P1,8,5,11950,220.374,2-chloro-3-iodophosphirane,N,ClC1C(I)P1,"InChI=1S/C2H3ClIP/c3-1-2(4)5-1/h1-2,5H",InChIKey=ZBAREJWQAXQELL-UHFFFAOYSA-N,170.96,Pr,   170.96(BP est)    -27.25(MP est)      ----(BP exp)      ----(MP exp)  ClC1C(I)P1 ,-27.25,Pred,N
CHClIOP,O=PC(Cl)I,6,5,12060,222.346,(chloroiodomethyl)(oxo)phosphane,N,O=PC(Cl)I,InChI=1S/CHClIOP/c2-1(3)5-4/h1H,InChIKey=SIZGOVRWSNRXIJ-UHFFFAOYSA-N,200.82,Pr,   200.82(BP est)    -14.59(MP est)      ----(BP exp)      ----(MP exp)  O=PC(Cl)I ,-14.59,Pred,N
C2H5ClIP,PC(C)(Cl)I,10,5,12065,222.39,(1-chloro-1-iodoethyl)phosphane,N,PC(C)(Cl)I,"InChI=1S/C2H5ClIP/c1-2(3,4)5/h5H2,1H3",InChIKey=OYUMNUOVNVSOHJ-UHFFFAOYSA-N,160.84,Pr,   160.84(BP est)    -29.42(MP est)      ----(BP exp)      ----(MP exp)  PC(C)(Cl)I ,-29.42,Pred,N
C2H5ClIP,PC(Cl)CI,10,5,12066,222.39,(1-chloro-2-iodoethyl)phosphane,N,PC(Cl)CI,"InChI=1S/C2H5ClIP/c3-2(5)1-4/h2H,1,5H2",InChIKey=QUKDGJLTSCLWAA-UHFFFAOYSA-N,180.77,Pr,   180.77(BP est)    -32.31(MP est)      ----(BP exp)      ----(MP exp)  PC(Cl)CI ,-32.31,Pred,N
C2H5ClIP,PC(I)CCl,10,5,12067,222.39,(2-chloro-1-iodoethyl)phosphane,N,PC(I)CCl,"InChI=1S/C2H5ClIP/c3-1-2(4)5/h2H,1,5H2",InChIKey=JKMVDCKEXVWOLV-UHFFFAOYSA-N,191.97,Pr,   191.97(BP est)    -29.04(MP est)      ----(BP exp)      ----(MP exp)  PC(I)CCl ,-29.04,Pred,N
C2H5ClIP,PCC(Cl)I,10,5,12068,222.39,(2-chloro-2-iodoethyl)phosphane,N,PCC(Cl)I,"InChI=1S/C2H5ClIP/c3-2(4)1-5/h2H,1,5H2",InChIKey=CWXGUCNBDFYMKK-UHFFFAOYSA-N,180.77,Pr,   180.77(BP est)    -32.31(MP est)      ----(BP exp)      ----(MP exp)  PCC(Cl)I ,-32.31,Pred,N
C2H5ClIP,CPC(Cl)I,10,5,12069,222.39,(chloroiodomethyl)(methyl)phosphane,N,CPC(Cl)I,"InChI=1S/C2H5ClIP/c1-5-2(3)4/h2,5H,1H3",InChIKey=VBXFIRCFHRJNOF-UHFFFAOYSA-N,162.59,Pr,   162.59(BP est)    -45.80(MP est)      ----(BP exp)      ----(MP exp)  CPC(Cl)I ,-45.8,Pred,N
C2H5ClIP,ClCPCI,10,5,12070,222.39,(chloromethyl)(iodomethyl)phosphane,N,ClCPCI,"InChI=1S/C2H5ClIP/c3-1-5-2-4/h5H,1-2H2",InChIKey=NFZOXNJMXYCLCQ-UHFFFAOYSA-N,186.74,Pr,   186.74(BP est)    -31.25(MP est)      ----(BP exp)      ----(MP exp)  ClCPCI ,-31.25,Pred,N
CH2Br2FP,PC(F)(Br)Br,7,5,12106,223.807,(dibromofluoromethyl)phosphane,N,PC(F)(Br)Br,"InChI=1S/CH2Br2FP/c2-1(3,4)5/h5H2",InChIKey=LVZNSDBISCPBIF-UHFFFAOYSA-N,145.27,Pr,   145.27(BP est)    -23.49(MP est)      ----(BP exp)      ----(MP exp)  PC(F)(Br)Br ,-23.49,Pred,N
CH2ClFIP,PC(I)(Cl)F,7,5,12159,226.354,(chlorofluoroiodomethyl)phosphane,N,PC(I)(Cl)F,"InChI=1S/CH2ClFIP/c2-1(3,4)5/h5H2",InChIKey=DRHXMDIMJMDICO-UHFFFAOYSA-N,140.97,Pr,   140.97(BP est)    -40.56(MP est)      ----(BP exp)      ----(MP exp)  PC(I)(Cl)F ,-40.56,Pred,N
CH2Br2ClP,PC(Cl)(Br)Br,7,5,12521,240.259,(dibromochloromethyl)phosphane,N,PC(Cl)(Br)Br,"InChI=1S/CH2Br2ClP/c2-1(3,4)5/h5H2",InChIKey=HXZTWKNASXCGSL-UHFFFAOYSA-N,177.44,Pr,   177.44(BP est)      0.56(MP est)      ----(BP exp)      ----(MP exp)  PC(Cl)(Br)Br ,0.56,Pred,N
CH2Cl2IP,PC(I)(Cl)Cl,7,5,12560,242.805,(dichloroiodomethyl)phosphane,N,PC(I)(Cl)Cl,"InChI=1S/CH2Cl2IP/c2-1(3,4)5/h5H2",InChIKey=GFNUZXAFTWRDCK-UHFFFAOYSA-N,173.4,Pr,   173.40(BP est)    -16.43(MP est)      ----(BP exp)      ----(MP exp)  PC(I)(Cl)Cl ,-16.43,Pred,N
C2H3BrIP,PC(Br)=CI,8,5,12927,264.828,(1-bromo-2-iodovinyl)phosphane,N,PC(Br)=CI,"InChI=1S/C2H3BrIP/c3-2(5)1-4/h1H,5H2",InChIKey=XDYXSTPPXWEVGB-UHFFFAOYSA-N,215.67,Pr,   215.67(BP est)     -9.20(MP est)      ----(BP exp)      ----(MP exp)  PC(Br)=CI ,-9.2,Pred,N
C2H3BrIP,PC(I)=CBr,8,5,12928,264.828,(2-bromo-1-iodovinyl)phosphane,N,PC(I)=CBr,"InChI=1S/C2H3BrIP/c3-1-2(4)5/h1H,5H2",InChIKey=BOLPLDIWXBWDPW-UHFFFAOYSA-N,215.67,Pr,   215.67(BP est)     -9.20(MP est)      ----(BP exp)      ----(MP exp)  PC(I)=CBr ,-9.2,Pred,N
C2H3BrIP,PC=C(Br)I,8,5,12929,264.828,(2-bromo-2-iodovinyl)phosphane,N,PC=C(Br)I,"InChI=1S/C2H3BrIP/c3-2(4)1-5/h1H,5H2",InChIKey=NXVQWXJLFBIJGX-UHFFFAOYSA-N,215.67,Pr,   215.67(BP est)     -9.20(MP est)      ----(BP exp)      ----(MP exp)  PC=C(Br)I ,-9.2,Pred,N
C2H3BrIP,BrC1(I)CP1,8,5,12930,264.828,2-bromo-2-iodophosphirane,N,BrC1(I)CP1,"InChI=1S/C2H3BrIP/c3-2(4)1-5-2/h5H,1H2",InChIKey=HPKXSAJNLFZLAU-UHFFFAOYSA-N,189.08,Pr,   189.08(BP est)      7.05(MP est)      ----(BP exp)      ----(MP exp)  BrC1(I)CP1 ,7.05,Pred,N
C2H3BrIP,BrC1C(I)P1,8,5,12931,264.828,2-bromo-3-iodophosphirane,N,BrC1C(I)P1,"InChI=1S/C2H3BrIP/c3-1-2(4)5-1/h1-2,5H",InChIKey=VULIFDKZPKHXCJ-UHFFFAOYSA-N,193.91,Pr,   193.91(BP est)     -5.61(MP est)      ----(BP exp)      ----(MP exp)  BrC1C(I)P1 ,-5.61,Pred,N
CHBrIOP,O=PC(Br)I,6,5,12992,266.8,(bromoiodomethyl)(oxo)phosphane,N,O=PC(Br)I,InChI=1S/CHBrIOP/c2-1(3)5-4/h1H,InChIKey=WFALXFZHEGDFHB-UHFFFAOYSA-N,222.31,Pr,   222.31(BP est)      6.62(MP est)      ----(BP exp)      ----(MP exp)  O=PC(Br)I ,6.62,Pred,N
C2H5BrIP,PC(C)(Br)I,10,5,12997,266.844,(1-bromo-1-iodoethyl)phosphane,N,PC(C)(Br)I,"InChI=1S/C2H5BrIP/c1-2(3,4)5/h5H2,1H3",InChIKey=VDKXZYGPVSUNSV-UHFFFAOYSA-N,195.35,Pr,   195.35(BP est)     -4.40(MP est)      ----(BP exp)      ----(MP exp)  PC(C)(Br)I ,-4.4,Pred,N
C2H5BrIP,PC(Br)CI,10,5,12998,266.844,(1-bromo-2-iodoethyl)phosphane,N,PC(Br)CI,"InChI=1S/C2H5BrIP/c3-2(5)1-4/h2H,1,5H2",InChIKey=JTNBASMOCVZAQK-UHFFFAOYSA-N,203.25,Pr,   203.25(BP est)    -10.81(MP est)      ----(BP exp)      ----(MP exp)  PC(Br)CI ,-10.81,Pred,N
C2H5BrIP,PC(I)CBr,10,5,12999,266.844,(2-bromo-1-iodoethyl)phosphane,N,PC(I)CBr,"InChI=1S/C2H5BrIP/c3-1-2(4)5/h2H,1,5H2",InChIKey=PXAKDEUNTOKBSV-UHFFFAOYSA-N,203.25,Pr,   203.25(BP est)    -10.81(MP est)      ----(BP exp)      ----(MP exp)  PC(I)CBr ,-10.81,Pred,N
C2H5BrIP,PCC(Br)I,10,5,13000,266.844,(2-bromo-2-iodoethyl)phosphane,N,PCC(Br)I,"InChI=1S/C2H5BrIP/c3-2(4)1-5/h2H,1,5H2",InChIKey=UTRRZLLQFPPOES-UHFFFAOYSA-N,203.25,Pr,   203.25(BP est)    -10.81(MP est)      ----(BP exp)      ----(MP exp)  PCC(Br)I ,-10.81,Pred,N
C2H5BrIP,CPC(Br)I,10,5,13001,266.844,(bromoiodomethyl)(methyl)phosphane,N,CPC(Br)I,"InChI=1S/C2H5BrIP/c1-5-2(3)4/h2,5H,1H3",InChIKey=XIBPVHYPBBDZMR-UHFFFAOYSA-N,185.94,Pr,   185.94(BP est)    -24.05(MP est)      ----(BP exp)      ----(MP exp)  CPC(Br)I ,-24.05,Pred,N
C2H5BrIP,BrCPCI,10,5,13002,266.844,(bromomethyl)(iodomethyl)phosphane,N,BrCPCI,"InChI=1S/C2H5BrIP/c3-1-5-2-4/h5H,1-2H2",InChIKey=WBTUJNJVLQYMFB-UHFFFAOYSA-N,198.15,Pr,   198.15(BP est)    -12.98(MP est)      ----(BP exp)      ----(MP exp)  BrCPCI ,-12.98,Pred,N
CH2BrFIP,PC(I)(Br)F,7,5,13056,270.808,(bromofluoroiodomethyl)phosphane,N,PC(I)(Br)F,"InChI=1S/CH2BrFIP/c2-1(3,4)5/h5H2",InChIKey=LAVYPGKJXFWDLA-UHFFFAOYSA-N,176.83,Pr,   176.83(BP est)    -15.15(MP est)      ----(BP exp)      ----(MP exp)  PC(I)(Br)F ,-15.15,Pred,N
CH2Br3P,PC(Br)(Br)Br,7,5,13237,284.713,(tribromomethyl)phosphane,N,PC(Br)(Br)Br,"InChI=1S/CH2Br3P/c2-1(3,4)5/h5H2",InChIKey=LGFPVLCPONVNQD-UHFFFAOYSA-N,210.78,Pr,   210.78(BP est)     25.24(MP est)      ----(BP exp)      ----(MP exp)  PC(Br)(Br)Br ,25.24,Pred,N
CH2BrClIP,PC(I)(Br)Cl,7,5,13264,287.259,(bromochloroiodomethyl)phosphane,N,PC(I)(Br)Cl,"InChI=1S/CH2BrClIP/c2-1(3,4)5/h5H2",InChIKey=AOSSVEPOKCUQBU-UHFFFAOYSA-N,207.03,Pr,   207.03(BP est)      8.33(MP est)      ----(BP exp)      ----(MP exp)  PC(I)(Br)Cl ,8.33,Pred,N
C2H3I2P,PC(I)=CI,8,5,13357,311.829,"(1,2-diiodovinyl)phosphane",N,PC(I)=CI,"InChI=1S/C2H3I2P/c3-1-2(4)5/h1H,5H2",InChIKey=OSYBFTAGDRWEDC-UHFFFAOYSA-N,242.74,Pr,   242.74(BP est)     -2.17(MP est)      ----(BP exp)      ----(MP exp)  PC(I)=CI ,-2.17,Pred,N
C2H3I2P,PC=C(I)I,8,5,13358,311.829,"(2,2-diiodovinyl)phosphane",N,PC=C(I)I,"InChI=1S/C2H3I2P/c3-2(4)1-5/h1H,5H2",InChIKey=SVVNDEMYKOSEAV-UHFFFAOYSA-N,242.74,Pr,   242.74(BP est)     -2.17(MP est)      ----(BP exp)      ----(MP exp)  PC=C(I)I ,-2.17,Pred,N
C2H3I2P,IC1(I)CP1,8,5,13359,311.829,"2,2-diiodophosphirane",N,IC1(I)CP1,"InChI=1S/C2H3I2P/c3-2(4)1-5-2/h5H,1H2",InChIKey=VIASXNXSVVCGGK-UHFFFAOYSA-N,217.93,Pr,   217.93(BP est)     14.60(MP est)      ----(BP exp)      ----(MP exp)  IC1(I)CP1 ,14.6,Pred,N
C2H3I2P,IC1C(I)P1,8,5,13360,311.829,"2,3-diiodophosphirane",N,IC1C(I)P1,"InChI=1S/C2H3I2P/c3-1-2(4)5-1/h1-2,5H",InChIKey=LYIPDZMVKNYLBU-UHFFFAOYSA-N,222.44,Pr,   222.44(BP est)      1.85(MP est)      ----(BP exp)      ----(MP exp)  IC1C(I)P1 ,1.85,Pred,N
CHI2OP,O=PC(I)I,6,5,13384,313.801,(diiodomethyl)(oxo)phosphane,N,O=PC(I)I,InChI=1S/CHI2OP/c2-1(3)5-4/h1H,InChIKey=TUJMAHPXHGVGSS-UHFFFAOYSA-N,248.92,Pr,   248.92(BP est)     13.52(MP est)      ----(BP exp)      ----(MP exp)  O=PC(I)I ,13.52,Pred,N
C2H5I2P,PC(C)(I)I,10,5,13388,313.845,"(1,1-diiodoethyl)phosphane",N,PC(C)(I)I,"InChI=1S/C2H5I2P/c1-2(3,4)5/h5H2,1H3",InChIKey=DUUJLATYMPBRNP-UHFFFAOYSA-N,223.78,Pr,   223.78(BP est)      3.03(MP est)      ----(BP exp)      ----(MP exp)  PC(C)(I)I ,3.03,Pred,N
C2H5I2P,PC(I)CI,10,5,13389,313.845,"(1,2-diiodoethyl)phosphane",N,PC(I)CI,"InChI=1S/C2H5I2P/c3-1-2(4)5/h2H,1,5H2",InChIKey=KAXIDGDDGYXUQE-UHFFFAOYSA-N,231.16,Pr,   231.16(BP est)     -3.53(MP est)      ----(BP exp)      ----(MP exp)  PC(I)CI ,-3.53,Pred,N
C2H5I2P,PCC(I)I,10,5,13390,313.845,"(2,2-diiodoethyl)phosphane",N,PCC(I)I,"InChI=1S/C2H5I2P/c3-2(4)1-5/h2H,1,5H2",InChIKey=CKGLNGPFSKCBJL-UHFFFAOYSA-N,231.16,Pr,   231.16(BP est)     -3.53(MP est)      ----(BP exp)      ----(MP exp)  PCC(I)I ,-3.53,Pred,N
C2H5I2P,CPC(I)I,10,5,13391,313.845,(diiodomethyl)(methyl)phosphane,N,CPC(I)I,"InChI=1S/C2H5I2P/c1-5-2(3)4/h2,5H,1H3",InChIKey=RPRJTNTZMAZFSW-UHFFFAOYSA-N,214.98,Pr,   214.98(BP est)    -16.44(MP est)      ----(BP exp)      ----(MP exp)  CPC(I)I ,-16.44,Pred,N