Formula,SMILES,Tot_atoms,Tot_nH_atoms,Dataset_no,Molecular_weight,IUPAC_chemname,Metalloid,EPISUITE,InChI_Code,InChI_Key,Boiling_Point,BP_basis,EPIsuite_output,MP,Basis,Life
C5H9P,C\C1=C\PCC1,15,6,3797,100.101,"4-methyl-2,3-dihydro-1H-phosphole",N,C\C1=C\PCC1,"InChI=1S/C5H9P/c1-5-2-3-6-4-5/h4,6H,2-3H2,1H3",InChIKey=BDVGFQZXOSPNBA-UHFFFAOYSA-N,122,Ex,   102.67(BP est)    -66.91(MP est)      ----(BP exp)      ----(MP exp)  C\C1=C\PCC1 ,-66.91,Pred,N
C5H9P,C=CPCC=C,15,6,3798,100.101,allyl(vinyl)phosphane,N,C=CPCC=C,"InChI=1S/C5H9P/c1-3-5-6-4-2/h3-4,6H,1-2,5H2",InChIKey=IFDXGGZPNNEEOB-UHFFFAOYSA-N,84.56,Pr,    84.56(BP est)    -89.93(MP est)      ----(BP exp)      ----(MP exp)  C=CPCC=C ,-89.93,Pred,N
C5H9P,CPCCC#C,15,6,3799,100.101,but-3-yn-1-yl(methyl)phosphane,N,CPCCC#C,"InChI=1S/C5H9P/c1-3-4-5-6-2/h1,6H,4-5H2,2H3",InChIKey=FFAWQNZGRJYDRD-UHFFFAOYSA-N,96.76,Pr,    96.76(BP est)    -61.12(MP est)      ----(BP exp)      ----(MP exp)  CPCCC#C ,-61.12,Pred,N
C5H9P,CPC(C#C)C,15,6,3800,100.101,but-3-yn-2-yl(methyl)phosphane,N,CPC(C#C)C,"InChI=1S/C5H9P/c1-4-5(2)6-3/h1,5-6H,2-3H3",InChIKey=HPLYPJHGWMGZNP-UHFFFAOYSA-N,82.03,Pr,    82.03(BP est)    -72.92(MP est)      ----(BP exp)      ----(MP exp)  CPC(C#C)C ,-72.92,Pred,N
C5H9P,CPC1CC=C1,15,6,3801,100.101,cyclobut-2-en-1-yl(methyl)phosphane,N,CPC1CC=C1,"InChI=1S/C5H9P/c1-6-5-3-2-4-5/h2-3,5-6H,4H2,1H3",InChIKey=BXLPUDODANGEJK-UHFFFAOYSA-N,97.77,Pr,    97.77(BP est)    -76.72(MP est)      ----(BP exp)      ----(MP exp)  CPC1CC=C1 ,-76.72,Pred,N
C5H9P,PC1CCC=C1,15,6,3802,100.101,cyclopent-2-en-1-ylphosphane,N,PC1CCC=C1,"InChI=1S/C5H9P/c6-5-3-1-2-4-5/h1,3,5H,2,4,6H2",InChIKey=YUQLZVSAWHJEFP-UHFFFAOYSA-N,120.29,Pr,   120.29(BP est)    -63.72(MP est)      ----(BP exp)      ----(MP exp)  PC1CCC=C1 ,-63.72,Pred,N
C5H9P,CP(CC#C)C,15,6,3803,100.101,dimethyl(prop-2-yn-1-yl)phosphane,N,CP(CC#C)C,"InChI=1S/C5H9P/c1-4-5-6(2)3/h1H,5H2,2-3H3",InChIKey=CHQPIGVVKGXOBW-UHFFFAOYSA-N,97.72,Pr,    97.72(BP est)    -61.53(MP est)      ----(BP exp)      ----(MP exp)  CP(CC#C)C ,-61.53,Pred,N
C5H9P,CP(CC)C#C,15,6,3804,100.101,ethyl(ethynyl)(methyl)phosphane,N,CP(CC)C#C,"InChI=1S/C5H9P/c1-4-6(3)5-2/h1H,5H2,2-3H3",InChIKey=JUHSSQIDTIWMSB-UHFFFAOYSA-N,97.72,Pr,    97.72(BP est)    -61.53(MP est)      ----(BP exp)      ----(MP exp)  CP(CC)C#C ,-61.53,Pred,N
C5H9P,CCPCC#C,15,6,3805,100.101,ethyl(prop-2-yn-1-yl)phosphane,N,CCPCC#C,"InChI=1S/C5H9P/c1-3-5-6-4-2/h1,6H,4-5H2,2H3",InChIKey=TVZXGTOPDAWLCX-UHFFFAOYSA-N,96.76,Pr,    96.76(BP est)    -61.12(MP est)      ----(BP exp)      ----(MP exp)  CCPCC#C ,-61.12,Pred,N
C5H9P,C#CPCCC,15,6,3806,100.101,ethynyl(propyl)phosphane,N,C#CPCCC,"InChI=1S/C5H9P/c1-3-5-6-4-2/h2,6H,3,5H2,1H3",InChIKey=RBSRTZROVWOTMY-UHFFFAOYSA-N,96.76,Pr,    96.76(BP est)    -61.12(MP est)      ----(BP exp)      ----(MP exp)  C#CPCCC ,-61.12,Pred,N
C5H9P,CP(C=C)C=C,15,6,3807,100.101,methyldivinylphosphane,N,CP(C=C)C=C,"InChI=1S/C5H9P/c1-4-6(3)5-2/h4-5H,1-2H2,3H3",InChIKey=VOGRMWWTDBMKIF-UHFFFAOYSA-N,85.54,Pr,    85.54(BP est)    -90.33(MP est)      ----(BP exp)      ----(MP exp)  CP(C=C)C=C ,-90.33,Pred,N
C5H9P,CCC(P)C#C,15,6,3808,100.101,pent-1-yn-3-ylphosphane,N,CCC(P)C#C,"InChI=1S/C5H9P/c1-3-5(6)4-2/h1,5H,4,6H2,2H3",InChIKey=OCBYBRTWPPVSOB-UHFFFAOYSA-N,102.92,Pr,   102.92(BP est)    -58.64(MP est)      ----(BP exp)      ----(MP exp)  CCC(P)C#C ,-58.64,Pred,N
C5H9P,C#CCCCP,15,6,3809,100.101,pent-4-yn-1-ylphosphane,N,C#CCCCP,"InChI=1S/C5H9P/c1-2-3-4-5-6/h1H,3-6H2",InChIKey=JOCPOXCTXPTXGH-UHFFFAOYSA-N,117.17,Pr,   117.17(BP est)    -46.98(MP est)      ----(BP exp)      ----(MP exp)  C#CCCCP ,-46.98,Pred,N
C5H9P,CC(P)CC#C,15,6,3810,100.101,pent-4-yn-2-ylphosphane,N,CC(P)CC#C,"InChI=1S/C5H9P/c1-3-4-5(2)6/h1,5H,4,6H2,2H3",InChIKey=WTAYJUPGMRRFKI-UHFFFAOYSA-N,102.92,Pr,   102.92(BP est)    -58.64(MP est)      ----(BP exp)      ----(MP exp)  CC(P)CC#C ,-58.64,Pred,N
C5H9P,C=CC(P)C=C,15,6,3811,100.101,"penta-1,4-dien-3-ylphosphane",N,C=CC(P)C=C,"InChI=1S/C5H9P/c1-3-5(6)4-2/h3-5H,1-2,6H2",InChIKey=DOFOGDYIIGDJBL-UHFFFAOYSA-N,90.84,Pr,    90.84(BP est)    -87.41(MP est)      ----(BP exp)      ----(MP exp)  C=CC(P)C=C ,-87.41,Pred,N
C4H4FP,C=CPC#CF,10,6,4001,102.048,(fluoroethynyl)(vinyl)phosphane,N,C=CPC#CF,"InChI=1S/C4H4FP/c1-2-6-4-3-5/h2,6H,1H2",InChIKey=MVYZPCLFICLQCP-UHFFFAOYSA-N,82.01,Pr,    82.01(BP est)    -42.08(MP est)      ----(BP exp)      ----(MP exp)  C=CPC#CF ,-42.08,Pred,N
C4H4FP,FC#CP1CC1,10,6,4002,102.048,1-(fluoroethynyl)phosphirane,N,FC#CP1CC1,InChI=1S/C4H4FP/c5-1-2-6-3-4-6/h3-4H2,InChIKey=ORTHKDDORCVYBU-UHFFFAOYSA-N,93.84,Pr,    93.84(BP est)    -25.59(MP est)      ----(BP exp)      ----(MP exp)  FC#CP1CC1 ,-25.59,Pred,N
C4H4FP,C#CP1C(F)C1,10,6,4003,102.048,1-ethynyl-2-fluorophosphirane,N,C#CP1C(F)C1,"InChI=1S/C4H4FP/c1-2-6-3-4(6)5/h1,4H,3H2",InChIKey=ZFRUBURPTMRHOZ-UHFFFAOYSA-N,77.55,Pr,    77.55(BP est)    -62.02(MP est)      ----(BP exp)      ----(MP exp)  C#CP1C(F)C1 ,-62.02,Pred,N
C4H4FP,FC1=CC=CP1,10,6,4004,102.048,2-fluoro-1H-phosphole,N,FC1=CC=CP1,"InChI=1S/C4H4FP/c5-4-2-1-3-6-4/h1-3,6H",InChIKey=KETJDVMZPMRISS-UHFFFAOYSA-N,83.96,Pr,    83.96(BP est)    -77.33(MP est)      ----(BP exp)      ----(MP exp)  FC1=CC=CP1 ,-77.33,Pred,N
C4H4FP,FC1=CPC=C1,10,6,4005,102.048,3-fluoro-1H-phosphole,N,FC1=CPC=C1,"InChI=1S/C4H4FP/c5-4-1-2-6-3-4/h1-3,6H",InChIKey=NWLOOCFPFQTATE-UHFFFAOYSA-N,83.96,Pr,    83.96(BP est)    -77.33(MP est)      ----(BP exp)      ----(MP exp)  FC1=CPC=C1 ,-77.33,Pred,N
C4H4FP,FC(PC#C)=C,10,6,4006,102.048,ethynyl(1-fluorovinyl)phosphane,N,FC(PC#C)=C,"InChI=1S/C4H4FP/c1-3-6-4(2)5/h1,6H,2H2",InChIKey=DXNYSKWLISSCRF-UHFFFAOYSA-N,65.87,Pr,    65.87(BP est)    -83.34(MP est)      ----(BP exp)      ----(MP exp)  FC(PC#C)=C ,-83.34,Pred,N
C4H4FP,FC=CPC#C,10,6,4007,102.048,ethynyl(2-fluorovinyl)phosphane,N,FC=CPC#C,"InChI=1S/C4H4FP/c1-2-6-4-3-5/h1,3-4,6H",InChIKey=PPUTYSUFBQKCHM-UHFFFAOYSA-N,82.25,Pr,    82.25(BP est)    -73.24(MP est)      ----(BP exp)      ----(MP exp)  FC=CPC#C ,-73.24,Pred,N
C4H7OP,COP1C=CC1,13,6,4008,102.073,"1-methoxy-1,2-dihydrophosphete",N,COP1C=CC1,"InChI=1S/C4H7OP/c1-5-6-3-2-4-6/h2-3H,4H2,1H3",InChIKey=DKPVREYGLWBOOF-UHFFFAOYSA-N,104.42,Pr,   104.42(BP est)    -66.11(MP est)      ----(BP exp)      ----(MP exp)  COP1C=CC1 ,-66.11,Pred,N
C4H7OP,O=P1(C)C=CC1,13,6,4009,102.073,1-methyl-2H-phosphete 1-oxide,N,O=P1(C)C=CC1,"InChI=1S/C4H7OP/c1-6(5)3-2-4-6/h2-3H,4H2,1H3",InChIKey=NCJWGWFTFKEPTL-UHFFFAOYSA-N,141.03,Pr,   141.03(BP est)    -56.53(MP est)      ----(BP exp)      ----(MP exp)  O=P1(C)C=CC1 ,-56.53,Pred,N
C4H7OP,O=P1(C=C)CC1,13,6,4010,102.073,1-vinylphosphirane 1-oxide,N,O=P1(C=C)CC1,"InChI=1S/C4H7OP/c1-2-6(5)3-4-6/h2H,1,3-4H2",InChIKey=QDDUVAHUWXDLTB-UHFFFAOYSA-N,134.32,Pr,   134.32(BP est)    -57.99(MP est)      ----(BP exp)      ----(MP exp)  O=P1(C=C)CC1 ,-57.99,Pred,N
C4H7OP,O=P1C=CCC1,13,6,4012,102.073,"2,3-dihydrophosphole 1-oxide",N,O=P1C=CCC1,"InChI=1S/C4H7OP/c5-6-3-1-2-4-6/h1,3,6H,2,4H2",InChIKey=BNPJZQPPXJLGJR-UHFFFAOYSA-N,145.15,Pr,   145.15(BP est)    -48.90(MP est)      ----(BP exp)      ----(MP exp)  O=P1C=CCC1 ,-48.9,Pred,N
C4H7OP,O=P(C=C)C=C,13,6,4013,102.073,divinylphosphine oxide,N,O=P(C=C)C=C,"InChI=1S/C4H7OP/c1-3-6(5)4-2/h3-4,6H,1-2H2",InChIKey=JHMHUNMDAIEPBV-UHFFFAOYSA-N,126.31,Pr,   126.31(BP est)    -65.88(MP est)      ----(BP exp)      ----(MP exp)  O=P(C=C)C=C ,-65.88,Pred,N
C4H7OP,O=P(CC)C#C,13,6,4015,102.073,ethyl(ethynyl)phosphine oxide,N,O=P(CC)C#C,"InChI=1S/C4H7OP/c1-3-6(5)4-2/h1,6H,4H2,2H3",InChIKey=UFYJUBNAMVDQSN-UHFFFAOYSA-N,137.71,Pr,   137.71(BP est)    -37.30(MP est)      ----(BP exp)      ----(MP exp)  O=P(CC)C#C ,-37.3,Pred,N
C4H7OP,CP(C#C)OC,13,6,4016,102.073,ethynyl(methoxy)(methyl)phosphane,N,CP(C#C)OC,"InChI=1S/C4H7OP/c1-4-6(3)5-2/h1H,2-3H3",InChIKey=GQUZYXAVRDMWHF-UHFFFAOYSA-N,98.66,Pr,    98.66(BP est)    -55.77(MP est)      ----(BP exp)      ----(MP exp)  CP(C#C)OC ,-55.77,Pred,N
C4H7OP,O=P(C#C)(C)C,13,6,4017,102.073,ethynyldimethylphosphine oxide,N,O=P(C#C)(C)C,"InChI=1S/C4H7OP/c1-4-6(2,3)5/h1H,2-3H3",InChIKey=MPVVLKLPNDVWFC-UHFFFAOYSA-N,135.62,Pr,   135.62(BP est)    -46.10(MP est)      ----(BP exp)      ----(MP exp)  O=P(C#C)(C)C ,-46.1,Pred,N
C4H7OP,C#CCPOC,13,6,4020,102.073,methoxy(prop-2-yn-1-yl)phosphane,N,C#CCPOC,"InChI=1S/C4H7OP/c1-3-4-6-5-2/h1,6H,4H2,2H3",InChIKey=SBPVXCUZRAIFGD-UHFFFAOYSA-N,97.69,Pr,    97.69(BP est)    -55.37(MP est)      ----(BP exp)      ----(MP exp)  C#CCPOC ,-55.37,Pred,N
C4H7OP,O=P(C)CC#C,13,6,4021,102.073,methyl(prop-2-yn-1-yl)phosphine oxide,N,O=P(C)CC#C,"InChI=1S/C4H7OP/c1-3-4-6(2)5/h1,6H,4H2,2H3",InChIKey=HYALUHGIZFVESV-UHFFFAOYSA-N,137.71,Pr,   137.71(BP est)    -37.30(MP est)      ----(BP exp)      ----(MP exp)  O=P(C)CC#C ,-37.3,Pred,N
C5H11P,CC1(CP)CC1,17,6,4035,102.117,((1-methylcyclopropyl)methyl)phosphane,N,CC1(CP)CC1,"InChI=1S/C5H11P/c1-5(4-6)2-3-5/h2-4,6H2,1H3",InChIKey=DISORCIMVLMTRL-UHFFFAOYSA-N,100.38,Pr,   100.38(BP est)    -54.44(MP est)      ----(BP exp)      ----(MP exp)  CC1(CP)CC1 ,-54.44,Pred,N
C5H11P,CC(P)C1CC1,17,6,4036,102.117,(1-cyclopropylethyl)phosphane,N,CC(P)C1CC1,"InChI=1S/C5H11P/c1-4(6)5-2-3-5/h4-5H,2-3,6H2,1H3",InChIKey=VLAYZDZWRLVUIY-UHFFFAOYSA-N,98.58,Pr,    98.58(BP est)    -74.42(MP est)      ----(BP exp)      ----(MP exp)  CC(P)C1CC1 ,-74.42,Pred,N
C5H11P,CCC1(P)CC1,17,6,4037,102.117,(1-ethylcyclopropyl)phosphane,N,CCC1(P)CC1,"InChI=1S/C5H11P/c1-2-5(6)3-4-5/h2-4,6H2,1H3",InChIKey=HVJJADMVWTZZGN-UHFFFAOYSA-N,100.38,Pr,   100.38(BP est)    -54.44(MP est)      ----(BP exp)      ----(MP exp)  CCC1(P)CC1 ,-54.44,Pred,N
C5H11P,CC1(P)CCC1,17,6,4038,102.117,(1-methylcyclobutyl)phosphane,N,CC1(P)CCC1,"InChI=1S/C5H11P/c1-5(6)3-2-4-5/h2-4,6H2,1H3",InChIKey=WGTNTVRSCDEVTM-UHFFFAOYSA-N,102.58,Pr,   102.58(BP est)    -55.56(MP est)      ----(BP exp)      ----(MP exp)  CC1(P)CCC1 ,-55.56,Pred,N
C5H11P,PCCC1CC1,17,6,4039,102.117,(2-cyclopropylethyl)phosphane,N,PCCC1CC1,"InChI=1S/C5H11P/c6-4-3-5-1-2-5/h5H,1-4,6H2",InChIKey=SZTURWFRNIFKOH-UHFFFAOYSA-N,112.93,Pr,   112.93(BP est)    -62.73(MP est)      ----(BP exp)      ----(MP exp)  PCCC1CC1 ,-62.73,Pred,N
C5H11P,CC(CP)C=C,17,6,4040,102.117,(2-methylbut-3-en-1-yl)phosphane,N,CC(CP)C=C,"InChI=1S/C5H11P/c1-3-5(2)4-6/h3,5H,1,4,6H2,2H3",InChIKey=ZCIZOUYOGYFLBZ-UHFFFAOYSA-N,92.65,Pr,    92.65(BP est)    -86.00(MP est)      ----(BP exp)      ----(MP exp)  CC(CP)C=C ,-86,Pred,N
C5H11P,CC(C=C)(P)C,17,6,4041,102.117,(2-methylbut-3-en-2-yl)phosphane,N,CC(C=C)(P)C,"InChI=1S/C5H11P/c1-4-5(2,3)6/h4H,1,6H2,2-3H3",InChIKey=JCRNVDLAUYNLHY-UHFFFAOYSA-N,82.95,Pr,    82.95(BP est)    -80.12(MP est)      ----(BP exp)      ----(MP exp)  CC(C=C)(P)C ,-80.12,Pred,N
C5H11P,CC1CCC1P,17,6,4042,102.117,(2-methylcyclobutyl)phosphane,N,CC1CCC1P,"InChI=1S/C5H11P/c1-4-2-3-5(4)6/h4-5H,2-3,6H2,1H3",InChIKey=RGMZIMJZBXJEOM-UHFFFAOYSA-N,108.25,Pr,   108.25(BP est)    -67.98(MP est)      ----(BP exp)      ----(MP exp)  CC1CCC1P ,-67.98,Pred,N
C5H11P,PCC1CCC1,17,6,4043,102.117,(cyclobutylmethyl)phosphane,N,PCC1CCC1,"InChI=1S/C5H11P/c6-4-5-2-1-3-5/h5H,1-4,6H2",InChIKey=XGVSNOPGUGPUGA-UHFFFAOYSA-N,115.08,Pr,   115.08(BP est)    -63.86(MP est)      ----(BP exp)      ----(MP exp)  PCC1CCC1 ,-63.86,Pred,N
C5H11P,CPCC1CC1,17,6,4044,102.117,(cyclopropylmethyl)(methyl)phosphane,N,CPCC1CC1,"InChI=1S/C5H11P/c1-6-4-5-2-3-5/h5-6H,2-4H2,1H3",InChIKey=IBHQHEBZQHXLRE-UHFFFAOYSA-N,92.37,Pr,    92.37(BP est)    -76.92(MP est)      ----(BP exp)      ----(MP exp)  CPCC1CC1 ,-76.92,Pred,N
C5H11P,CCP1CCC1,17,6,4045,102.117,1-ethylphosphetane,N,CCP1CCC1,"InChI=1S/C5H11P/c1-2-6-4-3-5-6/h2-5H2,1H3",InChIKey=NKPYPPAVTFLXHD-UHFFFAOYSA-N,100.34,Pr,   100.34(BP est)    -73.16(MP est)      ----(BP exp)      ----(MP exp)  CCP1CCC1 ,-73.16,Pred,N
C5H11P,CP1CCCC1,17,6,4046,102.117,1-methylphospholane,N,CP1CCCC1,"InChI=1S/C5H11P/c1-6-4-2-3-5-6/h2-5H2,1H3",InChIKey=CDGZRUIQNOATAK-UHFFFAOYSA-N,123.5,Ex,   102.54(BP est)    -74.27(MP est)      ----(BP exp)      ----(MP exp)  CP1CCCC1 ,-74.27,Pred,N
C5H11P,CCCP1CC1,17,6,4047,102.117,1-propylphosphirane,N,CCCP1CC1,"InChI=1S/C5H11P/c1-2-3-6-4-5-6/h2-5H2,1H3",InChIKey=CESWNZOLEVLPOP-UHFFFAOYSA-N,98.14,Pr,    98.14(BP est)    -72.04(MP est)      ----(BP exp)      ----(MP exp)  CCCP1CC1 ,-72.04,Pred,N
C5H11P,CC1PCCC1,17,6,4048,102.117,2-methylphospholane,N,CC1PCCC1,"InChI=1S/C5H11P/c1-5-3-2-4-6-5/h5-6H,2-4H2,1H3",InChIKey=NYZMOSORJSZGJE-UHFFFAOYSA-N,94.6,Pr,    94.60(BP est)    -78.03(MP est)      ----(BP exp)      ----(MP exp)  CC1PCCC1 ,-78.03,Pred,N
C5H11P,CCPCC=C,17,6,4049,102.117,allyl(ethyl)phosphane,N,CCPCC=C,"InChI=1S/C5H11P/c1-3-5-6-4-2/h3,6H,1,4-5H2,2H3",InChIKey=AFCIUICIKJFTKF-UHFFFAOYSA-N,86.39,Pr,    86.39(BP est)    -88.51(MP est)      ----(BP exp)      ----(MP exp)  CCPCC=C ,-88.51,Pred,N
C5H11P,CP(CC=C)C,17,6,4050,102.117,allyldimethylphosphane,N,CP(CC=C)C,"InChI=1S/C5H11P/c1-4-5-6(2)3/h4H,1,5H2,2-3H3",InChIKey=UJHXOBMBGUHTLX-UHFFFAOYSA-N,87.38,Pr,    87.38(BP est)    -88.91(MP est)      ----(BP exp)      ----(MP exp)  CP(CC=C)C ,-88.91,Pred,N
C5H11P,CPCCC=C,17,6,4051,102.117,but-3-en-1-yl(methyl)phosphane,N,CPCCC=C,"InChI=1S/C5H11P/c1-3-4-5-6-2/h3,6H,1,4-5H2,2H3",InChIKey=ALRFOHVKJGPMGC-UHFFFAOYSA-N,86.39,Pr,    86.39(BP est)    -88.51(MP est)      ----(BP exp)      ----(MP exp)  CPCCC=C ,-88.51,Pred,N
C5H11P,CPC(C=C)C,17,6,4052,102.117,but-3-en-2-yl(methyl)phosphane,N,CPC(C=C)C,"InChI=1S/C5H11P/c1-4-5(2)6-3/h4-6H,1H2,2-3H3",InChIKey=JAWXTIBMUQURIL-UHFFFAOYSA-N,71.44,Pr,    71.44(BP est)   -100.38(MP est)      ----(BP exp)      ----(MP exp)  CPC(C=C)C ,-100.38,Pred,N
C5H11P,CPC1CCC1,17,6,4053,102.117,cyclobutyl(methyl)phosphane,N,CPC1CCC1,"InChI=1S/C5H11P/c1-6-5-3-2-4-5/h5-6H,2-4H2,1H3",InChIKey=RSEJIZQURXMXGA-UHFFFAOYSA-N,94.6,Pr,    94.60(BP est)    -78.03(MP est)      ----(BP exp)      ----(MP exp)  CPC1CCC1 ,-78.03,Pred,N
C5H11P,PC1CCCC1,17,6,4054,102.117,cyclopentylphosphane,N,PC1CCCC1,"InChI=1S/C5H11P/c6-5-3-1-2-4-5/h5H,1-4,6H2",InChIKey=DVIDIZXCFDHODG-UHFFFAOYSA-N,117.23,Pr,   117.23(BP est)    -65.00(MP est)      ----(BP exp)      ----(MP exp)  PC1CCCC1 ,-65,Pred,N
C5H11P,CCPC1CC1,17,6,4055,102.117,cyclopropyl(ethyl)phosphane,N,CCPC1CC1,"InChI=1S/C5H11P/c1-2-6-5-3-4-5/h5-6H,2-4H2,1H3",InChIKey=CIEHQKHWBSRWSN-UHFFFAOYSA-N,92.37,Pr,    92.37(BP est)    -76.92(MP est)      ----(BP exp)      ----(MP exp)  CCPC1CC1 ,-76.92,Pred,N
C5H11P,CP(C1CC1)C,17,6,4056,102.117,cyclopropyldimethylphosphane,N,CP(C1CC1)C,"InChI=1S/C5H11P/c1-6(2)5-3-4-5/h5H,3-4H2,1-2H3",InChIKey=DKOURVYRFUGIHC-UHFFFAOYSA-N,93.35,Pr,    93.35(BP est)    -77.32(MP est)      ----(BP exp)      ----(MP exp)  CP(C1CC1)C ,-77.32,Pred,N
C5H11P,CP(CC)C=C,17,6,4057,102.117,ethyl(methyl)(vinyl)phosphane,N,CP(CC)C=C,"InChI=1S/C5H11P/c1-4-6(3)5-2/h4H,1,5H2,2-3H3",InChIKey=IBXHLCQBPCQZMT-UHFFFAOYSA-N,87.38,Pr,    87.38(BP est)    -88.91(MP est)      ----(BP exp)      ----(MP exp)  CP(CC)C=C ,-88.91,Pred,N
C5H11P,CPC1(CC1)C,17,6,4058,102.117,methyl(1-methylcyclopropyl)phosphane,N,CPC1(CC1)C,"InChI=1S/C5H11P/c1-5(6-2)3-4-5/h6H,3-4H2,1-2H3",InChIKey=KHGYRGDMKMFXTK-UHFFFAOYSA-N,79.42,Pr,    79.42(BP est)    -68.75(MP est)      ----(BP exp)      ----(MP exp)  CPC1(CC1)C ,-68.75,Pred,N
C5H11P,CCC(P)C=C,17,6,4059,102.117,pent-1-en-3-ylphosphane,N,CCC(P)C=C,"InChI=1S/C5H11P/c1-3-5(6)4-2/h3,5H,1,4,6H2,2H3",InChIKey=VRJHCAKYMAQJRK-UHFFFAOYSA-N,92.65,Pr,    92.65(BP est)    -86.00(MP est)      ----(BP exp)      ----(MP exp)  CCC(P)C=C ,-86,Pred,N
C5H11P,C=CCCCP,17,6,4060,102.117,pent-4-en-1-ylphosphane,N,C=CCCCP,"InChI=1S/C5H11P/c1-2-3-4-5-6/h2H,1,3-6H2",InChIKey=KSSYIPBVOBEADP-UHFFFAOYSA-N,107.14,Pr,   107.14(BP est)    -74.27(MP est)      ----(BP exp)      ----(MP exp)  C=CCCCP ,-74.27,Pred,N
C5H11P,CC(P)CC=C,17,6,4061,102.117,pent-4-en-2-ylphosphane,N,CC(P)CC=C,"InChI=1S/C5H11P/c1-3-4-5(2)6/h3,5H,1,4,6H2,2H3",InChIKey=ZAICSQAQXWXMSJ-UHFFFAOYSA-N,92.65,Pr,    92.65(BP est)    -86.00(MP est)      ----(BP exp)      ----(MP exp)  CC(P)CC=C ,-86,Pred,N
C5H11P,C1CCCCP1,17,6,4062,102.117,phosphinane,N,C1CCCCP1,"InChI=1S/C5H11P/c1-2-4-6-5-3-1/h6H,1-5H2",InChIKey=VXTFGYMINLXJPW-UHFFFAOYSA-N,103.78,Pr,   103.78(BP est)    -74.99(MP est)      ----(BP exp)      ----(MP exp)  C1CCCCP1 ,-74.99,Pred,N
C5H11P,C=CPCCC,17,6,4063,102.117,propyl(vinyl)phosphane,N,C=CPCCC,"InChI=1S/C5H11P/c1-3-5-6-4-2/h4,6H,2-3,5H2,1H3",InChIKey=IMRUVPJNKRUQDD-UHFFFAOYSA-N,86.39,Pr,    86.39(BP est)    -88.51(MP est)      ----(BP exp)      ----(MP exp)  C=CPCCC ,-88.51,Pred,N
C3H2FOP,O=PC(F)C#C,8,6,4284,104.02,(1-fluoroprop-2-yn-1-yl)(oxo)phosphane,N,O=PC(F)C#C,"InChI=1S/C3H2FOP/c1-2-3(4)6-5/h1,3H",InChIKey=RYXWLRXIROAIMP-UHFFFAOYSA-N,104.94,Pr,   104.94(BP est)    -51.52(MP est)      ----(BP exp)      ----(MP exp)  O=PC(F)C#C ,-51.52,Pred,N
C3H2FOP,O=PCC#CF,8,6,4285,104.02,(3-fluoroprop-2-yn-1-yl)(oxo)phosphane,N,O=PCC#CF,InChI=1S/C3H2FOP/c4-2-1-3-6-5/h3H2,InChIKey=QBMXRGMWJDMVDL-UHFFFAOYSA-N,127.78,Pr,   127.78(BP est)     -7.79(MP est)      ----(BP exp)      ----(MP exp)  O=PCC#CF ,-7.79,Pred,N
C3H5O2P,O=P1(O)C=CC1,11,6,4286,104.045,1-hydroxy-2H-phosphete 1-oxide,N,O=P1(O)C=CC1,"InChI=1S/C3H5O2P/c4-6(5)2-1-3-6/h1-2H,3H2,(H,4,5)",InChIKey=VVTMNULLGWWHMB-UHFFFAOYSA-N,213.62,Pr,   213.62(BP est)    -10.57(MP est)      ----(BP exp)      ----(MP exp)  O=P1(O)C=CC1 ,-10.57,Pred,N
C3H5O2P,O=POCC=C,11,6,4287,104.045,allyl phosphenite,N,O=POCC=C,"InChI=1S/C3H5O2P/c1-2-3-5-6-4/h2H,1,3H2",InChIKey=DDJCVIFQUUQTFR-UHFFFAOYSA-N,131.03,Pr,   131.03(BP est)    -49.95(MP est)      ----(BP exp)      ----(MP exp)  O=POCC=C ,-49.95,Pred,N
C3H5O2P,O=P(O)(C)C#C,11,6,4288,104.045,ethynyl(methyl)phosphinic acid,N,O=P(O)(C)C#C,"InChI=1S/C3H5O2P/c1-3-6(2,4)5/h1H,2H3,(H,4,5)",InChIKey=LQQKOCUHXWIZMG-UHFFFAOYSA-N,208.96,Pr,   208.96(BP est)      0.09(MP est)      ----(BP exp)      ----(MP exp)  O=P(O)(C)C#C ,0.09,Pred,N
C3H5O2P,O=P(C#C)OC,11,6,4289,104.045,methyl ethynylphosphinate,N,O=P(C#C)OC,"InChI=1S/C3H5O2P/c1-3-6(4)5-2/h1,6H,2H3",InChIKey=FUZQETGQIZMMAL-UHFFFAOYSA-N,138.58,Pr,   138.58(BP est)    -31.57(MP est)      ----(BP exp)      ----(MP exp)  O=P(C#C)OC ,-31.57,Pred,N
C3H5O2P,C#CP(O)OC,11,6,4290,104.045,methyl hydrogen ethynylphosphonite,N,C#CP(O)OC,"InChI=1S/C3H5O2P/c1-3-6(4)5-2/h1,4H,2H3",InChIKey=FAVFECAABRJSLY-UHFFFAOYSA-N,176.97,Pr,   176.97(BP est)     -8.13(MP est)      ----(BP exp)      ----(MP exp)  C#CP(O)OC ,-8.13,Pred,N
C3H5O2P,O=P(CC#C)O,11,6,4291,104.045,prop-2-yn-1-ylphosphinic acid,N,O=P(CC#C)O,"InChI=1S/C3H5O2P/c1-2-3-6(4)5/h1,6H,3H2,(H,4,5)",InChIKey=CGDXBIVUIGTTSZ-UHFFFAOYSA-N,210.76,Pr,   210.76(BP est)      8.80(MP est)      ----(BP exp)      ----(MP exp)  O=P(CC#C)O ,8.8,Pred,N
C3H5O2P,O=P(C=C=C)O,11,6,4293,104.045,"propa-1,2-dien-1-ylphosphinic acid",N,O=P(C=C=C)O,"InChI=1S/C3H5O2P/c1-2-3-6(4)5/h3,6H,1H2,(H,4,5)",InChIKey=GQAWTEDCVKWLJB-UHFFFAOYSA-N,203.98,Pr,   203.98(BP est)    -14.29(MP est)      ----(BP exp)      ----(MP exp)  O=P(C=C=C)O ,-14.29,Pred,N
C4H6FP,CPC(F)C#C,12,6,4294,104.064,(1-fluoroprop-2-yn-1-yl)(methyl)phosphane,N,CPC(F)C#C,"InChI=1S/C4H6FP/c1-3-4(5)6-2/h1,4,6H,2H3",InChIKey=VTRRHQANDBWFNI-UHFFFAOYSA-N,59.39,Pr,    59.39(BP est)    -84.87(MP est)      ----(BP exp)      ----(MP exp)  CPC(F)C#C ,-84.87,Pred,N
C4H6FP,C=CPC(F)=C,12,6,4295,104.064,(1-fluorovinyl)(vinyl)phosphane,N,C=CPC(F)=C,"InChI=1S/C4H6FP/c1-3-6-4(2)5/h3,6H,1-2H2",InChIKey=SYZNHBWVDXNMTH-UHFFFAOYSA-N,55.03,Pr,    55.03(BP est)   -110.87(MP est)      ----(BP exp)      ----(MP exp)  C=CPC(F)=C ,-110.87,Pred,N
C4H6FP,C=CPC=CF,12,6,4296,104.064,(2-fluorovinyl)(vinyl)phosphane,N,C=CPC=CF,"InChI=1S/C4H6FP/c1-2-6-4-3-5/h2-4,6H,1H2",InChIKey=BSCSHFKFCPZXRF-UHFFFAOYSA-N,71.66,Pr,    71.66(BP est)   -100.70(MP est)      ----(BP exp)      ----(MP exp)  C=CPC=CF ,-100.7,Pred,N
C4H6FP,CPCC#CF,12,6,4297,104.064,(3-fluoroprop-2-yn-1-yl)(methyl)phosphane,N,CPCC#CF,"InChI=1S/C4H6FP/c1-6-4-2-3-5/h6H,4H2,1H3",InChIKey=CUMMWBORSDPFNO-UHFFFAOYSA-N,83.86,Pr,    83.86(BP est)    -40.66(MP est)      ----(BP exp)      ----(MP exp)  CPCC#CF ,-40.66,Pred,N