Formula,SMILES,Tot_atoms,Tot_nH_atoms,Dataset_no,Molecular_weight,IUPAC_chemname,Metalloid,EPISUITE,InChI_Code,InChI_Key,Boiling_Point,BP_basis,EPIsuite_output,MP,Basis,Life
C2H5I2P,ICPCI,10,5,13392,313.845,bis(iodomethyl)phosphane,N,ICPCI,"InChI=1S/C2H5I2P/c3-1-5-2-4/h5H,1-2H2",InChIKey=OVERNSBGFLBGPM-UHFFFAOYSA-N,226.41,Pr,   226.41(BP est)     -5.60(MP est)      ----(BP exp)      ----(MP exp)  ICPCI ,-5.6,Pred,N
CH2FI2P,PC(I)(F)I,7,5,13424,317.808,(fluorodiiodomethyl)phosphane,N,PC(I)(F)I,"InChI=1S/CH2FI2P/c2-1(3,4)5/h5H2",InChIKey=JSHJOWIXKAGZSO-UHFFFAOYSA-N,206.45,Pr,   206.45(BP est)     -7.37(MP est)      ----(BP exp)      ----(MP exp)  PC(I)(F)I ,-7.37,Pred,N
CH2Br2IP,PC(I)(Br)Br,7,5,13479,331.713,(dibromoiodomethyl)phosphane,N,PC(I)(Br)Br,"InChI=1S/CH2Br2IP/c2-1(3,4)5/h5H2",InChIKey=FEIXHHOWMQJKIM-UHFFFAOYSA-N,238.19,Pr,   238.19(BP est)     32.37(MP est)      ----(BP exp)      ----(MP exp)  PC(I)(Br)Br ,32.37,Pred,N
CH2ClI2P,PC(I)(Cl)I,7,5,13497,334.26,(chlorodiiodomethyl)phosphane,N,PC(I)(Cl)I,"InChI=1S/CH2ClI2P/c2-1(3,4)5/h5H2",InChIKey=KGDLXVMBRYLGDZ-UHFFFAOYSA-N,234.69,Pr,   234.69(BP est)     15.54(MP est)      ----(BP exp)      ----(MP exp)  PC(I)(Cl)I ,15.54,Pred,N
CH2BrI2P,PC(I)(Br)I,7,5,13531,378.714,(bromodiiodomethyl)phosphane,N,PC(I)(Br)I,"InChI=1S/CH2BrI2P/c2-1(3,4)5/h5H2",InChIKey=JHLVGAKRPKRKOJ-UHFFFAOYSA-N,263.66,Pr,   263.66(BP est)     38.93(MP est)      ----(BP exp)      ----(MP exp)  PC(I)(Br)I ,38.93,Pred,N
C3H5OP,C#CC[P]([H])([H])=O,10,5,14961,88.0458,prop-2-yn-1-ylphosphine oxide,N,C#CCP=O,"InChI=1S/C3H5OP/c1-2-3-5-4/h1H,3,5H2",InChIKey=WNWFUZQSEKGODG-UHFFFAOYSA-N,116.86,Pr,   116.86(BP est)    -40.84(MP est)      ----(BP exp)      ----(MP exp)  C#CCP=O ,-40.84,Pred,N
C3H7OP,C=CC[P]([H])([H])=O,12,5,14963,90.0618,allylphosphine oxide,N,C=CCP=O,"InChI=1S/C3H7OP/c1-2-3-5-4/h2H,1,3,5H2",InChIKey=YSIGMKSIEYPQJB-UHFFFAOYSA-N,106.82,Pr,   106.82(BP est)    -68.13(MP est)      ----(BP exp)      ----(MP exp)  C=CCP=O ,-68.13,Pred,N
C2H2FOP,FC#C[P]([H])([H])=O,7,5,14964,92.0092,(fluoroethynyl)phosphine oxide,N,O=PC#CF,InChI=1S/C2H2FOP/c3-1-2-5-4/h5H2,InChIKey=YEQRUDPLJVRERF-UHFFFAOYSA-N,104.37,Pr,   104.37(BP est)    -20.26(MP est)      ----(BP exp)      ----(MP exp)  O=PC#CF ,-20.26,Pred,N
C3H9OP,CCC[P]([H])([H])=O,14,5,14965,92.0778,propylphosphine oxide,N,CCCP=O,"InChI=1S/C3H9OP/c1-2-3-5-4/h2-3,5H2,1H3",InChIKey=DFVANUYVZDJAHN-UHFFFAOYSA-N,108.6,Pr,   108.60(BP est)    -66.74(MP est)      ----(BP exp)      ----(MP exp)  CCCP=O ,-66.74,Pred,N
C2H4FOP,FC(=C)[P]([H])([H])=O,9,5,14967,94.0252,(1-fluorovinyl)phosphine oxide,N,C=C(F)P=O,"InChI=1S/C2H4FOP/c1-2(3)5-4/h1,5H2",InChIKey=ACRQAJBLVYLXBG-UHFFFAOYSA-N,78.27,Pr,    78.27(BP est)    -88.79(MP est)      ----(BP exp)      ----(MP exp)  C=C(F)P=O ,-88.79,Pred,N
C2H4FOP,FC=C[P]([H])([H])=O,9,5,14968,94.0252,(2-fluorovinyl)phosphine oxide,N,O=PC=CF,"InChI=1S/C2H4FOP/c3-1-2-5-4/h1-2H,5H2",InChIKey=BFGMTSRSSLEQMC-UHFFFAOYSA-N,94.36,Pr,    94.36(BP est)    -78.77(MP est)      ----(BP exp)      ----(MP exp)  O=PC=CF ,-78.77,Pred,N
C2H6FOP,FC(C)[P]([H])([H])=O,11,5,14969,96.0412,(1-fluoroethyl)phosphine oxide,N,CC(F)P=O,"InChI=1S/C2H6FOP/c1-2(3)5-4/h2H,5H2,1H3",InChIKey=RPPYETVLABTMJN-UHFFFAOYSA-N,71.91,Pr,    71.91(BP est)    -90.29(MP est)      ----(BP exp)      ----(MP exp)  CC(F)P=O ,-90.29,Pred,N
C2H6FOP,FCC[P]([H])([H])=O,11,5,14970,96.0412,(2-fluoroethyl)phosphine oxide,N,O=PCCF,"InChI=1S/C2H6FOP/c3-1-2-5-4/h1-2,5H2",InChIKey=GPPRNGRHMVUDNN-UHFFFAOYSA-N,86.85,Pr,    86.85(BP est)    -78.43(MP est)      ----(BP exp)      ----(MP exp)  O=PCCF ,-78.43,Pred,N
CH3F2OP,FC(F)[P]([H])([H])=O,8,5,14973,100.005,(difluoromethyl)phosphine oxide,N,O=PC(F)F,"InChI=1S/CH3F2OP/c2-1(3)5-4/h1H,5H2",InChIKey=FVFNYLZATSOUDF-UHFFFAOYSA-N,48.93,Pr,    48.93(BP est)   -102.34(MP est)      ----(BP exp)      ----(MP exp)  O=PC(F)F ,-102.34,Pred,N
C2H2ClOP,ClC#C[P]([H])([H])=O,7,5,14980,108.461,(chloroethynyl)phosphine oxide,N,O=PC#CCl,InChI=1S/C2H2ClOP/c3-1-2-5-4/h5H2,InChIKey=OMVXVBXLCNNUHZ-UHFFFAOYSA-N,136.93,Pr,   136.93(BP est)      3.91(MP est)      ----(BP exp)      ----(MP exp)  O=PC#CCl ,3.91,Pred,N
C2H4ClOP,ClC(=C)[P]([H])([H])=O,9,5,14983,110.477,(1-chlorovinyl)phosphine oxide,N,C=C(Cl)P=O,"InChI=1S/C2H4ClOP/c1-2(3)5-4/h1,5H2",InChIKey=HFZQTTKOZRISGC-UHFFFAOYSA-N,112.19,Pr,   112.19(BP est)    -64.22(MP est)      ----(BP exp)      ----(MP exp)  C=C(Cl)P=O ,-64.22,Pred,N
C2H4ClOP,ClC=C[P]([H])([H])=O,9,5,14984,110.477,(2-chlorovinyl)phosphine oxide,N,O=PC=CCl,"InChI=1S/C2H4ClOP/c3-1-2-5-4/h1-2H,5H2",InChIKey=DKWXUTQARXMLPW-UHFFFAOYSA-N,127.44,Pr,   127.44(BP est)    -54.45(MP est)      ----(BP exp)      ----(MP exp)  O=PC=CCl ,-54.45,Pred,N
C2H6ClOP,ClC(C)[P]([H])([H])=O,11,5,14987,112.493,(1-chloroethyl)phosphine oxide,N,CC(Cl)P=O,"InChI=1S/C2H6ClOP/c1-2(3)5-4/h2H,5H2,1H3",InChIKey=VRBSWJXGAYCSNX-UHFFFAOYSA-N,121.03,Pr,   121.03(BP est)    -61.28(MP est)      ----(BP exp)      ----(MP exp)  CC(Cl)P=O ,-61.28,Pred,N
C2H6ClOP,ClCC[P]([H])([H])=O,11,5,14988,112.493,(2-chloroethyl)phosphine oxide,N,O=PCCCl,"InChI=1S/C2H6ClOP/c3-1-2-5-4/h1-2,5H2",InChIKey=MAHZBVJHJPWTPH-UHFFFAOYSA-N,147.1,Pr,   147.10(BP est)    -46.17(MP est)      ----(BP exp)      ----(MP exp)  O=PCCCl ,-46.17,Pred,N
CH3ClFOP,ClC(F)[P]([H])([H])=O,8,5,14992,116.456,(chlorofluoromethyl)phosphine oxide,N,O=PC(F)Cl,"InChI=1S/CH3ClFOP/c2-1(3)5-4/h1H,5H2",InChIKey=ARINUOFGBCTLIE-UHFFFAOYSA-N,99.71,Pr,    99.71(BP est)    -72.85(MP est)      ----(BP exp)      ----(MP exp)  O=PC(F)Cl ,-72.85,Pred,N
C2H2BrOP,BrC#C[P]([H])([H])=O,7,5,15024,152.915,(bromoethynyl)phosphine oxide,N,O=PC#CBr,InChI=1S/C2H2BrOP/c3-1-2-5-4/h5H2,InChIKey=OVGDSKGZUPJAFX-UHFFFAOYSA-N,174.92,Pr,   174.92(BP est)     29.94(MP est)      ----(BP exp)      ----(MP exp)  O=PC#CBr ,29.94,Pred,N
C2H4BrOP,BrC(=C)[P]([H])([H])=O,9,5,15026,154.931,(1-bromovinyl)phosphine oxide,N,C=C(Br)P=O,"InChI=1S/C2H4BrOP/c1-2(3)5-4/h1,5H2",InChIKey=VLJYPICSMPZXGX-UHFFFAOYSA-N,151.87,Pr,   151.87(BP est)    -37.70(MP est)      ----(BP exp)      ----(MP exp)  C=C(Br)P=O ,-37.7,Pred,N
C2H4BrOP,BrC=C[P]([H])([H])=O,9,5,15027,154.931,(2-bromovinyl)phosphine oxide,N,O=PC=CBr,"InChI=1S/C2H4BrOP/c3-1-2-5-4/h1-2H,5H2",InChIKey=LTCGIWQTHFVSMT-UHFFFAOYSA-N,166.09,Pr,   166.09(BP est)    -28.22(MP est)      ----(BP exp)      ----(MP exp)  O=PC=CBr ,-28.22,Pred,N
C2H6BrOP,BrC(C)[P]([H])([H])=O,11,5,15028,156.947,(1-bromoethyl)phosphine oxide,N,CC(Br)P=O,"InChI=1S/C2H6BrOP/c1-2(3)5-4/h2H,5H2,1H3",InChIKey=HNHGHHGTGNGZQL-UHFFFAOYSA-N,146.23,Pr,   146.23(BP est)    -38.98(MP est)      ----(BP exp)      ----(MP exp)  CC(Br)P=O ,-38.98,Pred,N
C2H6BrOP,BrCC[P]([H])([H])=O,11,5,15029,156.947,(2-bromoethyl)phosphine oxide,N,O=PCCBr,"InChI=1S/C2H6BrOP/c3-1-2-5-4/h1-2,5H2",InChIKey=QBAFCIOYIRZJPS-UHFFFAOYSA-N,159.46,Pr,   159.46(BP est)    -27.62(MP est)      ----(BP exp)      ----(MP exp)  O=PCCBr ,-27.62,Pred,N
CH3BrFOP,BrC(F)[P]([H])([H])=O,8,5,15031,160.91,(bromofluoromethyl)phosphine oxide,N,O=PC(F)Br,"InChI=1S/CH3BrFOP/c2-1(3)5-4/h1H,5H2",InChIKey=QIVCIYNUDUIVKH-UHFFFAOYSA-N,125.82,Pr,   125.82(BP est)    -50.28(MP est)      ----(BP exp)      ----(MP exp)  O=PC(F)Br ,-50.28,Pred,N
CH3BrClOP,BrC(Cl)[P]([H])([H])=O,8,5,15049,177.362,(bromochloromethyl)phosphine oxide,N,O=PC(Cl)Br,"InChI=1S/CH3BrClOP/c2-1(3)5-4/h1H,5H2",InChIKey=SKQWSBDSCBOKTG-UHFFFAOYSA-N,170.82,Pr,   170.82(BP est)    -22.48(MP est)      ----(BP exp)      ----(MP exp)  O=PC(Cl)Br ,-22.48,Pred,N
C2H2IOP,IC#C[P]([H])([H])=O,7,5,15061,199.915,(iodoethynyl)phosphine oxide,N,O=PC#CI,InChI=1S/C2H2IOP/c3-1-2-5-4/h5H2,InChIKey=PRGLUDOPFLWVRI-UHFFFAOYSA-N,204.67,Pr,   204.67(BP est)     27.12(MP est)      ----(BP exp)      ----(MP exp)  O=PC#CI ,27.12,Pred,N
C2H4IOP,IC(=C)[P]([H])([H])=O,9,5,15062,201.931,(1-iodovinyl)phosphine oxide,N,C=C(I)P=O,"InChI=1S/C2H4IOP/c1-2(3)5-4/h1,5H2",InChIKey=VKEXMIBLGZEBRC-UHFFFAOYSA-N,183.04,Pr,   183.04(BP est)    -29.47(MP est)      ----(BP exp)      ----(MP exp)  C=C(I)P=O ,-29.47,Pred,N
C2H4IOP,IC=C[P]([H])([H])=O,9,5,15063,201.931,(2-iodovinyl)phosphine oxide,N,O=PC=CI,"InChI=1S/C2H4IOP/c3-1-2-5-4/h1-2H,5H2",InChIKey=UEGFAQIBGOMCEA-UHFFFAOYSA-N,196.39,Pr,   196.39(BP est)    -20.25(MP est)      ----(BP exp)      ----(MP exp)  O=PC=CI ,-20.25,Pred,N
C2H6IOP,IC(C)[P]([H])([H])=O,11,5,15064,203.947,(1-iodoethyl)phosphine oxide,N,CC(I)P=O,"InChI=1S/C2H6IOP/c1-2(3)5-4/h2H,5H2,1H3",InChIKey=YMFBNMAPJKDDPT-UHFFFAOYSA-N,177.73,Pr,   177.73(BP est)    -30.66(MP est)      ----(BP exp)      ----(MP exp)  CC(I)P=O ,-30.66,Pred,N
C2H6IOP,ICC[P]([H])([H])=O,11,5,15065,203.947,(2-iodoethyl)phosphine oxide,N,O=PCCI,"InChI=1S/C2H6IOP/c3-1-2-5-4/h1-2,5H2",InChIKey=XHYUCUICONNXAT-UHFFFAOYSA-N,190.17,Pr,   190.17(BP est)    -19.53(MP est)      ----(BP exp)      ----(MP exp)  O=PCCI ,-19.53,Pred,N
CH3FIOP,FC(I)[P]([H])([H])=O,8,5,15066,207.911,(fluoroiodomethyl)phosphine oxide,N,O=PC(F)I,"InChI=1S/CH3FIOP/c2-1(3)5-4/h1H,5H2",InChIKey=XGGARHIXSJQZTE-UHFFFAOYSA-N,158.51,Pr,   158.51(BP est)    -41.61(MP est)      ----(BP exp)      ----(MP exp)  O=PC(F)I ,-41.61,Pred,N
CH3Br2OP,BrC(Br)[P]([H])([H])=O,8,5,15079,221.816,(dibromomethyl)phosphine oxide,N,O=PC(Br)Br,"InChI=1S/CH3Br2OP/c2-1(3)5-4/h1H,5H2",InChIKey=YXDXCEYOMORSIJ-UHFFFAOYSA-N,193.77,Pr,   193.77(BP est)     -0.84(MP est)      ----(BP exp)      ----(MP exp)  O=PC(Br)Br ,-0.84,Pred,N
CH3ClIOP,ClC(I)[P]([H])([H])=O,8,5,15084,224.362,(chloroiodomethyl)phosphine oxide,N,O=PC(Cl)I,"InChI=1S/CH3ClIOP/c2-1(3)5-4/h1H,5H2",InChIKey=UIZOYDLHZIIWHX-UHFFFAOYSA-N,200.82,Pr,   200.82(BP est)    -14.59(MP est)      ----(BP exp)      ----(MP exp)  O=PC(Cl)I ,-14.59,Pred,N
CH3BrIOP,BrC(I)[P]([H])([H])=O,8,5,15102,268.816,(bromoiodomethyl)phosphine oxide,N,O=PC(Br)I,"InChI=1S/CH3BrIOP/c2-1(3)5-4/h1H,5H2",InChIKey=MGKZNFCPUNXWPG-UHFFFAOYSA-N,222.31,Pr,   222.31(BP est)      6.62(MP est)      ----(BP exp)      ----(MP exp)  O=PC(Br)I ,6.62,Pred,N
C3H9PSe,[Se]=P(C)(C)C,14,5,15566,155.039,trimethylphosphine selenide,N,[Se]=P(C)(C)C,"InChI=1S/C3H9PSe/c1-4(2,3)5/h1-3H3",InChIKey=BHWOYTDRBNAVRI-UHFFFAOYSA-N,131.73,Pr,   131.73(BP est)    -38.85(MP est)      ----(BP exp)      ----(MP exp)  [Se]=P(C)(C)C ,-38.85,Pred,N
C2H7OPSe,CP(C)(O)=[Se],12,5,15612,157.011,dimethylphosphinoselenoic O-acid,N,CP(C)(O)=[Se],"InChI=1S/C2H7OPSe/c1-4(2,3)5/h1-2H3,(H,3,5)",InChIKey=HTHBNXGDNZBDHB-UHFFFAOYSA-N,205.61,Pr,   205.61(BP est)      7.49(MP est)      ----(BP exp)      ----(MP exp)  CP(C)(O)=[Se] ,7.49,Pred,N
H6N3PSe,NP(N)(N)=[Se],11,5,15648,158.003,phosphoroselenoic triamide,N,NP(N)(N)=[Se],"InChI=1S/H6N3PSe/c1-4(2,3)5/h(H6,1,2,3,5)",InChIKey=JVGCXXINAVNCIL-UHFFFAOYSA-N,235.7548155,Pr,   594.01(BP est)    256.51(MP est)      ----(BP exp)      ----(MP exp)  NP(N)(N)=[Se] ,256.51,Pred,N
CH5O2PSe,CP(O)(O)=[Se],10,5,15649,158.983,"methylphosphonoselenoic O,O-acid",N,CP(O)(O)=[Se],"InChI=1S/CH5O2PSe/c1-4(2,3)5/h1H3,(H2,2,3,5)",InChIKey=SKDTUTPYQSMPOC-UHFFFAOYSA-N,268.54,Pr,   268.54(BP est)     50.64(MP est)      ----(BP exp)      ----(MP exp)  CP(O)(O)=[Se] ,50.64,Pred,N
H5N2OPSe,NP(N)(O)=[Se],10,5,15650,158.987,phosphorodiamidoselenoic O-acid,N,NP(N)(O)=[Se],"InChI=1S/H5N2OPSe/c1-4(2,3)5/h(H5,1,2,3,5)",InChIKey=WZFYSGFZYQTVLD-UHFFFAOYSA-N,238.8736014,Pr,   615.23(BP est)    266.42(MP est)      ----(BP exp)      ----(MP exp)  NP(N)(O)=[Se] ,266.42,Pred,N
H4NO2PSe,[Se]=P(N)(O)O,9,5,15670,159.971,"phosphoramidoselenoic O,O-acid",N,[Se]=P(N)(O)O,"InChI=1S/H4NO2PSe/c1-4(2,3)5/h(H4,1,2,3,5)",InChIKey=PPWVVWDYIUYFKZ-UHFFFAOYSA-N,241.6103031,Pr,   636.45(BP est)    276.34(MP est)      ----(BP exp)      ----(MP exp)  [Se]=P(N)(O)O ,276.34,Pred,N
H3O3PSe,[Se]=P(O)(O)O,8,5,15671,160.955,"phosphoroselenoic O,O,O-acid",N,[Se]=P(O)(O)O,"InChI=1S/H3O3PSe/c1-4(2,3)5/h(H3,1,2,3,5)",InChIKey=JRPHGDYSKGJTKZ-UHFFFAOYSA-N,243.9141159,Pr,   657.67(BP est)    286.25(MP est)      ----(BP exp)      ----(MP exp)  [Se]=P(O)(O)O ,286.25,Pred,N
CH3F2PSe,CP(F)(F)=[Se],8,5,16132,162.966,methylphosphonoselenoic difluoride,N,CP(F)(F)=[Se],"InChI=1S/CH3F2PSe/c1-4(2,3)5/h1H3",InChIKey=DNMXKLZPWIFLKX-UHFFFAOYSA-N,89.12,Pr,    89.12(BP est)    -61.97(MP est)      ----(BP exp)      ----(MP exp)  CP(F)(F)=[Se] ,-61.97,Pred,N
C5H5P,C#CP1C=CC1,11,6,3559,96.0688,"1-ethynyl-1,2-dihydrophosphete",N,C#CP1C=CC1,"InChI=1S/C5H5P/c1-2-6-4-3-5-6/h1,3-4H,5H2",InChIKey=YYNMIVHFKOFSFA-UHFFFAOYSA-N,111.82,Pr,   111.82(BP est)    -45.94(MP est)      ----(BP exp)      ----(MP exp)  C#CP1C=CC1 ,-45.94,Pred,N
C5H5P,CP(C#C)C#C,11,6,3560,96.0688,diethynyl(methyl)phosphane,N,CP(C#C)C#C,"InChI=1S/C5H5P/c1-4-6(3)5-2/h1-2H,3H3",InChIKey=DNGKOUNSNWKJKP-UHFFFAOYSA-N,106.13,Pr,   106.13(BP est)    -35.59(MP est)      ----(BP exp)      ----(MP exp)  CP(C#C)C#C ,-35.59,Pred,N
C5H5P,C#CPCC#C,11,6,3561,96.0688,ethynyl(prop-2-yn-1-yl)phosphane,N,C#CPCC#C,"InChI=1S/C5H5P/c1-3-5-6-4-2/h1-2,6H,5H2",InChIKey=HOLMLCHJDZKESW-UHFFFAOYSA-N,105.17,Pr,   105.17(BP est)    -35.18(MP est)      ----(BP exp)      ----(MP exp)  C#CPCC#C ,-35.18,Pred,N
C5H5P,C#CC(P)C#C,11,6,3562,96.0688,"penta-1,4-diyn-3-ylphosphane",N,C#CC(P)C#C,"InChI=1S/C5H5P/c1-3-5(6)4-2/h1-2,5H,6H2",InChIKey=SJLZECKSIJHBKP-UHFFFAOYSA-N,111.25,Pr,   111.25(BP est)    -32.72(MP est)      ----(BP exp)      ----(MP exp)  C#CC(P)C#C ,-32.72,Pred,N
C4H3OP,O=P(C#C)C#C,9,6,3664,98.0408,diethynylphosphine oxide,N,O=P(C#C)C#C,"InChI=1S/C4H3OP/c1-3-6(5)4-2/h1-2,6H",InChIKey=SGLRELITEHLKPB-UHFFFAOYSA-N,145.57,Pr,   145.57(BP est)    -11.52(MP est)      ----(BP exp)      ----(MP exp)  O=P(C#C)C#C ,-11.52,Pred,N
C5H7P,C#CCP1CC1,13,6,3678,98.0848,1-(prop-2-yn-1-yl)phosphirane,N,C#CCP1CC1,"InChI=1S/C5H7P/c1-2-3-6-4-5-6/h1H,3-5H2",InChIKey=HRUGPSUKHBGUHV-UHFFFAOYSA-N,106.54,Pr,   106.54(BP est)    -46.10(MP est)      ----(BP exp)      ----(MP exp)  C#CCP1CC1 ,-46.1,Pred,N
C5H7P,C#CP1CCC1,13,6,3679,98.0848,1-ethynylphosphetane,N,C#CP1CCC1,"InChI=1S/C5H7P/c1-2-6-4-3-5-6/h1H,3-5H2",InChIKey=LIXPLPYWGAOYFM-UHFFFAOYSA-N,108.72,Pr,   108.72(BP est)    -47.23(MP est)      ----(BP exp)      ----(MP exp)  C#CP1CCC1 ,-47.23,Pred,N
C5H7P,CP1C=CC=C1,13,6,3680,98.0848,1-methyl-1H-phosphole,N,CP1C=CC=C1,"InChI=1S/C5H7P/c1-6-4-2-3-5-6/h2-5H,1H3",InChIKey=KUCAPSLVHGFOHX-UHFFFAOYSA-N,108.79,Pr,   108.79(BP est)    -71.69(MP est)      ----(BP exp)      ----(MP exp)  CP1C=CC=C1 ,-71.69,Pred,N
C5H7P,C=CP1C=CC1,13,6,3681,98.0848,"1-vinyl-1,2-dihydrophosphete",N,C=CP1C=CC1,"InChI=1S/C5H7P/c1-2-6-4-3-5-6/h2-4H,1,5H2",InChIKey=WRRGMVRDYYKLKU-UHFFFAOYSA-N,101.7,Pr,   101.70(BP est)    -73.26(MP est)      ----(BP exp)      ----(MP exp)  C=CP1C=CC1 ,-73.26,Pred,N
C5H7P,C#CPCC=C,13,6,3682,98.0848,allyl(ethynyl)phosphane,N,C#CPCC=C,"InChI=1S/C5H7P/c1-3-5-6-4-2/h2-3,6H,1,5H2",InChIKey=SBQDUIPCHZKNHQ-UHFFFAOYSA-N,94.95,Pr,    94.95(BP est)    -62.53(MP est)      ----(BP exp)      ----(MP exp)  C#CPCC=C ,-62.53,Pred,N
C5H7P,PC=1C\C=C/C=1,13,6,3683,98.0848,"cyclopenta-1,3-dien-1-ylphosphane",N,PC=1C\C=C/C=1,"InChI=1S/C5H7P/c6-5-3-1-2-4-5/h1-3H,4,6H2",InChIKey=DFNAVVPSBALZPD-UHFFFAOYSA-N,126.1,Pr,   126.10(BP est)    -62.89(MP est)      ----(BP exp)      ----(MP exp)  PC=1C\C=C/C=1 ,-62.89,Pred,N
C5H7P,CP(C=C)C#C,13,6,3684,98.0848,ethynyl(methyl)(vinyl)phosphane,N,CP(C=C)C#C,"InChI=1S/C5H7P/c1-4-6(3)5-2/h1,5H,2H2,3H3",InChIKey=GXKYZIPQBDYCDR-UHFFFAOYSA-N,95.92,Pr,    95.92(BP est)    -62.93(MP est)      ----(BP exp)      ----(MP exp)  CP(C=C)C#C ,-62.93,Pred,N
C5H7P,C=CC(P)C#C,13,6,3685,98.0848,pent-1-en-4-yn-3-ylphosphane,N,C=CC(P)C#C,"InChI=1S/C5H7P/c1-3-5(6)4-2/h1,4-5H,2,6H2",InChIKey=WWILWRISIZHDQI-UHFFFAOYSA-N,101.13,Pr,   101.13(BP est)    -60.04(MP est)      ----(BP exp)      ----(MP exp)  C=CC(P)C#C ,-60.04,Pred,N
C5H7P,C=CPCC#C,13,6,3686,98.0848,prop-2-yn-1-yl(vinyl)phosphane,N,C=CPCC#C,"InChI=1S/C5H7P/c1-3-5-6-4-2/h1,4,6H,2,5H2",InChIKey=JTQRGCFWAOKZPE-UHFFFAOYSA-N,94.95,Pr,    94.95(BP est)    -62.53(MP est)      ----(BP exp)      ----(MP exp)  C=CPCC#C ,-62.53,Pred,N
C4H2FP,C#CPC#CF,8,6,3773,100.032,ethynyl(fluoroethynyl)phosphane,N,C#CPC#CF,"InChI=1S/C4H2FP/c1-2-6-4-3-5/h1,6H",InChIKey=JOFPWPCYMXBDGH-UHFFFAOYSA-N,92.44,Pr,    92.44(BP est)    -14.67(MP est)      ----(BP exp)      ----(MP exp)  C#CPC#CF ,-14.67,Pred,N
C4H5OP,O=P1(C#C)CC1,11,6,3780,100.057,1-ethynylphosphirane 1-oxide,N,O=P1(C#C)CC1,"InChI=1S/C4H5OP/c1-2-6(5)3-4-6/h1H,3-4H2",InChIKey=DTNMOTJQZNWWKG-UHFFFAOYSA-N,143.9,Pr,   143.90(BP est)    -30.83(MP est)      ----(BP exp)      ----(MP exp)  O=P1(C#C)CC1 ,-30.83,Pred,N
C4H5OP,O=P(C=C)C#C,11,6,3783,100.057,ethynyl(vinyl)phosphine oxide,N,O=P(C=C)C#C,"InChI=1S/C4H5OP/c1-3-6(5)4-2/h1,4,6H,2H2",InChIKey=KEYGHZUCKZKXOO-UHFFFAOYSA-N,136.02,Pr,   136.02(BP est)    -38.67(MP est)      ----(BP exp)      ----(MP exp)  O=P(C=C)C#C ,-38.67,Pred,N
C4H5OP,O=P1C=CC=C1,11,6,3784,100.057,phosphole 1-oxide,N,O=P1C=CC=C1,"InChI=1S/C4H5OP/c5-6-3-1-2-4-6/h1-4,6H",InChIKey=COGFELMKDSTKHZ-UHFFFAOYSA-N,148.06,Pr,   148.06(BP est)    -47.67(MP est)      ----(BP exp)      ----(MP exp)  O=P1C=CC=C1 ,-47.67,Pred,N
C5H9P,CC1(P)CC=C1,15,6,3786,100.101,(1-methylcyclobut-2-en-1-yl)phosphane,N,CC1(P)CC=C1,"InChI=1S/C5H9P/c1-5(6)3-2-4-5/h2-3H,4,6H2,1H3",InChIKey=QXHGCKDMZPASOG-UHFFFAOYSA-N,105.72,Pr,   105.72(BP est)    -54.27(MP est)      ----(BP exp)      ----(MP exp)  CC1(P)CC=C1 ,-54.27,Pred,N
C5H9P,C=CC1(P)CC1,15,6,3787,100.101,(1-vinylcyclopropyl)phosphane,N,C=CC1(P)CC1,"InChI=1S/C5H9P/c1-2-5(6)3-4-5/h2H,1,3-4,6H2",InChIKey=YAUQHDSBXNLTNZ-UHFFFAOYSA-N,98.59,Pr,    98.59(BP est)    -55.85(MP est)      ----(BP exp)      ----(MP exp)  C=CC1(P)CC1 ,-55.85,Pred,N
C5H9P,CC(CP)C#C,15,6,3788,100.101,(2-methylbut-3-yn-1-yl)phosphane,N,CC(CP)C#C,"InChI=1S/C5H9P/c1-3-5(2)4-6/h1,5H,4,6H2,2H3",InChIKey=KJDCOTSIYAACNS-UHFFFAOYSA-N,102.92,Pr,   102.92(BP est)    -58.64(MP est)      ----(BP exp)      ----(MP exp)  CC(CP)C#C ,-58.64,Pred,N
C5H9P,CC(C#C)(P)C,15,6,3789,100.101,(2-methylbut-3-yn-2-yl)phosphane,N,CC(C#C)(P)C,"InChI=1S/C5H9P/c1-4-5(2,3)6/h1H,6H2,2-3H3",InChIKey=REHCVBGPNODZIN-UHFFFAOYSA-N,93.37,Pr,    93.37(BP est)    -52.72(MP est)      ----(BP exp)      ----(MP exp)  CC(C#C)(P)C ,-52.72,Pred,N
C5H9P,PCC1CC=C1,15,6,3790,100.101,(cyclobut-2-en-1-ylmethyl)phosphane,N,PCC1CC=C1,"InChI=1S/C5H9P/c6-4-5-2-1-3-5/h1-2,5H,3-4,6H2",InChIKey=VBROIKJCFPHJLX-UHFFFAOYSA-N,118.15,Pr,   118.15(BP est)    -62.59(MP est)      ----(BP exp)      ----(MP exp)  PCC1CC=C1 ,-62.59,Pred,N
C5H9P,C1CC=CCP1,15,6,3791,100.101,"1,2,3,6-tetrahydrophosphinine",N,C1CC=CCP1,"InChI=1S/C5H9P/c1-2-4-6-5-3-1/h1-2,6H,3-5H2",InChIKey=NGWRWXZTTCRVJE-UHFFFAOYSA-N,106.9,Pr,   106.90(BP est)    -73.70(MP est)      ----(BP exp)      ----(MP exp)  C1CC=CCP1 ,-73.7,Pred,N
C5H9P,C=CCP1CC1,15,6,3792,100.101,1-allylphosphirane,N,C=CCP1CC1,"InChI=1S/C5H9P/c1-2-3-6-4-5-6/h2H,1,3-5H2",InChIKey=BWLFOZSQMVCBAS-UHFFFAOYSA-N,96.34,Pr,    96.34(BP est)    -73.45(MP est)      ----(BP exp)      ----(MP exp)  C=CCP1CC1 ,-73.45,Pred,N
C5H9P,CCP1C=CC1,15,6,3793,100.101,"1-ethyl-1,2-dihydrophosphete",N,CCP1C=CC1,"InChI=1S/C5H9P/c1-2-6-4-3-5-6/h3-4H,2,5H2,1H3",InChIKey=WFHIGUDXXGMBSX-UHFFFAOYSA-N,103.49,Pr,   103.49(BP est)    -71.86(MP est)      ----(BP exp)      ----(MP exp)  CCP1C=CC1 ,-71.86,Pred,N
C5H9P,CP1C=CCC1,15,6,3794,100.101,"1-methyl-2,3-dihydro-1H-phosphole",N,CP1C=CCC1,"InChI=1S/C5H9P/c1-6-4-2-3-5-6/h2,4H,3,5H2,1H3",InChIKey=ORZSRTQSMSCHEO-UHFFFAOYSA-N,105.68,Pr,   105.68(BP est)    -72.98(MP est)      ----(BP exp)      ----(MP exp)  CP1C=CCC1 ,-72.98,Pred,N
C5H9P,C\1=C\CP(C)C/1,15,6,3795,100.101,"1-methyl-2,5-dihydro-1H-phosphole",N,C\1=C\CP(C)C/1,"InChI=1S/C5H9P/c1-6-4-2-3-5-6/h2-3H,4-5H2,1H3",InChIKey=IKHBOSVJTCCGBL-UHFFFAOYSA-N,105.68,Pr,   105.68(BP est)    -72.98(MP est)      ----(BP exp)      ----(MP exp)  C\1=C\CP(C)C/1 ,-72.98,Pred,N
C5H9P,C=CP1CCC1,15,6,3796,100.101,1-vinylphosphetane,N,C=CP1CCC1,"InChI=1S/C5H9P/c1-2-6-4-3-5-6/h2H,1,3-5H2",InChIKey=UCJSQBFDDVRZTG-UHFFFAOYSA-N,98.55,Pr,    98.55(BP est)    -74.56(MP est)      ----(BP exp)      ----(MP exp)  C=CP1CCC1 ,-74.56,Pred,N