Formula,SMILES,Tot_atoms,Tot_nH_atoms,Dataset_no,Molecular_weight,IUPAC_chemname,Metalloid,EPISUITE,InChI_Code,InChI_Key,Boiling_Point,BP_basis,EPIsuite_output,MP,Basis,Life
C3H5I2P,IC1(I)CCP1,11,6,13450,325.856,"2,2-diiodophosphetane",N,IC1(I)CCP1,"InChI=1S/C3H5I2P/c4-3(5)1-2-6-3/h6H,1-2H2",InChIKey=JWYIWHZWAHJGHU-UHFFFAOYSA-N,238.22,Pr,   238.22(BP est)     24.40(MP est)      ----(BP exp)      ----(MP exp)  IC1(I)CCP1 ,24.4,Pred,N
C3H5I2P,CP1C(I)C1I,11,6,13451,325.856,"2,3-diiodo-1-methylphosphirane",N,CP1C(I)C1I,"InChI=1S/C3H5I2P/c1-6-2(4)3(6)5/h2-3H,1H3",InChIKey=XYFKIIVIXKDLMM-UHFFFAOYSA-N,241.57,Pr,   241.57(BP est)     12.39(MP est)      ----(BP exp)      ----(MP exp)  CP1C(I)C1I ,12.39,Pred,N
C3H5I2P,IC1C(I)CP1,11,6,13452,325.856,"2,3-diiodophosphetane",N,IC1C(I)CP1,"InChI=1S/C3H5I2P/c4-2-1-6-3(2)5/h2-3,6H,1H2",InChIKey=JPOUPRRGISKWNH-UHFFFAOYSA-N,242.49,Pr,   242.49(BP est)     11.58(MP est)      ----(BP exp)      ----(MP exp)  IC1C(I)CP1 ,11.58,Pred,N
C3H5I2P,IC1CC(I)P1,11,6,13453,325.856,"2,4-diiodophosphetane",N,IC1CC(I)P1,"InChI=1S/C3H5I2P/c4-2-1-3(5)6-2/h2-3,6H,1H2",InChIKey=VSVIOWOQPVTOCE-UHFFFAOYSA-N,242.49,Pr,   242.49(BP est)     11.58(MP est)      ----(BP exp)      ----(MP exp)  IC1CC(I)P1 ,11.58,Pred,N
C3H5I2P,ICP1C(I)C1,11,6,13454,325.856,2-iodo-1-(iodomethyl)phosphirane,N,ICP1C(I)C1,"InChI=1S/C3H5I2P/c4-2-6-1-3(6)5/h3H,1-2H2",InChIKey=ZWUBSYOQKDNWHJ-UHFFFAOYSA-N,246.73,Pr,   246.73(BP est)     16.01(MP est)      ----(BP exp)      ----(MP exp)  ICP1C(I)C1 ,16.01,Pred,N
C3H5I2P,IC1(I)CPC1,11,6,13455,325.856,"3,3-diiodophosphetane",N,IC1(I)CPC1,"InChI=1S/C3H5I2P/c4-3(5)1-6-2-3/h6H,1-2H2",InChIKey=IDDAUHUGFWQMJR-UHFFFAOYSA-N,238.22,Pr,   238.22(BP est)     24.40(MP est)      ----(BP exp)      ----(MP exp)  IC1(I)CPC1 ,24.4,Pred,N
C3H7I2P,CPC(C)(I)I,13,6,13457,327.872,"(1,1-diiodoethyl)(methyl)phosphane",N,CPC(C)(I)I,"InChI=1S/C3H7I2P/c1-3(4,5)6-2/h6H,1-2H3",InChIKey=KGWXAXZNBWCFMD-UHFFFAOYSA-N,226.42,Pr,   226.42(BP est)      1.25(MP est)      ----(BP exp)      ----(MP exp)  CPC(C)(I)I ,1.25,Pred,N
C3H7I2P,PC(CC)(I)I,13,6,13458,327.872,"(1,1-diiodopropyl)phosphane",N,PC(CC)(I)I,"InChI=1S/C3H7I2P/c1-2-3(4,5)6/h2,6H2,1H3",InChIKey=SJUCECCNYXFIHU-UHFFFAOYSA-N,242.13,Pr,   242.13(BP est)     14.02(MP est)      ----(BP exp)      ----(MP exp)  PC(CC)(I)I ,14.02,Pred,N
C3H7I2P,CPC(I)CI,13,6,13459,327.872,"(1,2-diiodoethyl)(methyl)phosphane",N,CPC(I)CI,"InChI=1S/C3H7I2P/c1-6-3(5)2-4/h3,6H,2H2,1H3",InChIKey=MIBIGNHWZIELSX-UHFFFAOYSA-N,233.75,Pr,   233.75(BP est)     -5.32(MP est)      ----(BP exp)      ----(MP exp)  CPC(I)CI ,-5.32,Pred,N
C3H7I2P,PC(I)C(I)C,13,6,13460,327.872,"(1,2-diiodopropyl)phosphane",N,PC(I)C(I)C,"InChI=1S/C3H7I2P/c1-2(4)3(5)6/h2-3H,6H2,1H3",InChIKey=DXHLMLRBAUHIGV-UHFFFAOYSA-N,238.42,Pr,   238.42(BP est)     -3.27(MP est)      ----(BP exp)      ----(MP exp)  PC(I)C(I)C ,-3.27,Pred,N
C3H7I2P,PC(I)CCI,13,6,13461,327.872,"(1,3-diiodopropyl)phosphane",N,PC(I)CCI,"InChI=1S/C3H7I2P/c4-2-1-3(5)6/h3H,1-2,6H2",InChIKey=BHZMXUADAQHIDI-UHFFFAOYSA-N,249.15,Pr,   249.15(BP est)      7.36(MP est)      ----(BP exp)      ----(MP exp)  PC(I)CCI ,7.36,Pred,N
C3H7I2P,ICPC(I)C,13,6,13462,327.872,(1-iodoethyl)(iodomethyl)phosphane,N,ICPC(I)C,"InChI=1S/C3H7I2P/c1-3(5)6-2-4/h3,6H,2H2,1H3",InChIKey=FMMUTVOTPMQBCK-UHFFFAOYSA-N,233.75,Pr,   233.75(BP est)     -5.32(MP est)      ----(BP exp)      ----(MP exp)  ICPC(I)C ,-5.32,Pred,N
C3H7I2P,CPCC(I)I,13,6,13463,327.872,"(2,2-diiodoethyl)(methyl)phosphane",N,CPCC(I)I,"InChI=1S/C3H7I2P/c1-6-2-3(4)5/h3,6H,2H2,1H3",InChIKey=NRNYZJBPPZRRRE-UHFFFAOYSA-N,233.75,Pr,   233.75(BP est)     -5.32(MP est)      ----(BP exp)      ----(MP exp)  CPCC(I)I ,-5.32,Pred,N
C3H7I2P,PCC(C)(I)I,13,6,13464,327.872,"(2,2-diiodopropyl)phosphane",N,PCC(C)(I)I,"InChI=1S/C3H7I2P/c1-3(4,5)2-6/h2,6H2,1H3",InChIKey=DVSODAMEOFNBJJ-UHFFFAOYSA-N,242.13,Pr,   242.13(BP est)     14.02(MP est)      ----(BP exp)      ----(MP exp)  PCC(C)(I)I ,14.02,Pred,N
C3H7I2P,PCC(I)CI,13,6,13465,327.872,"(2,3-diiodopropyl)phosphane",N,PCC(I)CI,"InChI=1S/C3H7I2P/c4-1-3(5)2-6/h3H,1-2,6H2",InChIKey=IVFFSTKRTPGTKW-UHFFFAOYSA-N,249.15,Pr,   249.15(BP est)      7.36(MP est)      ----(BP exp)      ----(MP exp)  PCC(I)CI ,7.36,Pred,N
C3H7I2P,ICPCCI,13,6,13466,327.872,(2-iodoethyl)(iodomethyl)phosphane,N,ICPCCI,"InChI=1S/C3H7I2P/c4-1-2-6-3-5/h6H,1-3H2",InChIKey=SYEPNMVUXCNOJQ-UHFFFAOYSA-N,244.63,Pr,   244.63(BP est)      5.35(MP est)      ----(BP exp)      ----(MP exp)  ICPCCI ,5.35,Pred,N
C3H7I2P,PCCC(I)I,13,6,13467,327.872,"(3,3-diiodopropyl)phosphane",N,PCCC(I)I,"InChI=1S/C3H7I2P/c4-3(5)1-2-6/h3H,1-2,6H2",InChIKey=FSULPZQQJNHVMX-UHFFFAOYSA-N,249.15,Pr,   249.15(BP est)      7.36(MP est)      ----(BP exp)      ----(MP exp)  PCCC(I)I ,7.36,Pred,N
C3H7I2P,IC(PCC)I,13,6,13468,327.872,(diiodomethyl)(ethyl)phosphane,N,IC(PCC)I,"InChI=1S/C3H7I2P/c1-2-6-3(4)5/h3,6H,2H2,1H3",InChIKey=JWHRMXOSKKAAEW-UHFFFAOYSA-N,233.75,Pr,   233.75(BP est)     -5.32(MP est)      ----(BP exp)      ----(MP exp)  IC(PCC)I ,-5.32,Pred,N
C3H7I2P,CP(C)C(I)I,13,6,13469,327.872,(diiodomethyl)dimethylphosphane,N,CP(C)C(I)I,"InChI=1S/C3H7I2P/c1-6(2)3(4)5/h3H,1-2H3",InChIKey=YNLBKIPAEYXVOW-UHFFFAOYSA-N,234.48,Pr,   234.48(BP est)     -5.79(MP est)      ----(BP exp)      ----(MP exp)  CP(C)C(I)I ,-5.79,Pred,N
C3H7I2P,CP(CI)CI,13,6,13470,327.872,bis(iodomethyl)(methyl)phosphane,N,CP(CI)CI,"InChI=1S/C3H7I2P/c1-6(2-4)3-5/h2-3H2,1H3",InChIKey=QECINIDVVOCERG-UHFFFAOYSA-N,245.34,Pr,   245.34(BP est)      4.88(MP est)      ----(BP exp)      ----(MP exp)  CP(CI)CI ,4.88,Pred,N
C2H2FI2P,PC(F)=C(I)I,8,6,13473,329.819,"(1-fluoro-2,2-diiodovinyl)phosphane",N,PC(F)=C(I)I,InChI=1S/C2H2FI2P/c3-1(6)2(4)5/h6H2,InChIKey=ZBAHVFSNEBQGND-UHFFFAOYSA-N,239.6,Pr,   239.60(BP est)     -9.77(MP est)      ----(BP exp)      ----(MP exp)  PC(F)=C(I)I ,-9.77,Pred,N
C2H2FI2P,PC(I)=C(F)I,8,6,13474,329.819,"(2-fluoro-1,2-diiodovinyl)phosphane",N,PC(I)=C(F)I,InChI=1S/C2H2FI2P/c3-1(4)2(5)6/h6H2,InChIKey=WHSXFBWXSFSDJV-UHFFFAOYSA-N,239.6,Pr,   239.60(BP est)     -9.77(MP est)      ----(BP exp)      ----(MP exp)  PC(I)=C(F)I ,-9.77,Pred,N
C2H2FI2P,IC1C(I)(F)P1,8,6,13475,329.819,"2-fluoro-2,3-diiodophosphirane",N,IC1C(I)(F)P1,"InChI=1S/C2H2FI2P/c3-2(5)1(4)6-2/h1,6H",InChIKey=LQJFWQZFGMSWMO-UHFFFAOYSA-N,214.25,Pr,   214.25(BP est)     11.70(MP est)      ----(BP exp)      ----(MP exp)  IC1C(I)(F)P1 ,11.7,Pred,N
C2H2FI2P,FC1C(I)(I)P1,8,6,13476,329.819,"3-fluoro-2,2-diiodophosphirane",N,FC1C(I)(I)P1,"InChI=1S/C2H2FI2P/c3-1-2(4,5)6-1/h1,6H",InChIKey=YGXTWNFDJFOOHH-UHFFFAOYSA-N,214.25,Pr,   214.25(BP est)     11.70(MP est)      ----(BP exp)      ----(MP exp)  FC1C(I)(I)P1 ,11.7,Pred,N
C2H5I2OP,IC(POC)I,11,6,13477,329.844,(diiodomethyl)(methoxy)phosphane,N,IC(POC)I,"InChI=1S/C2H5I2OP/c1-5-6-2(3)4/h2,6H,1H3",InChIKey=KSBFPLZHEBWBMI-UHFFFAOYSA-N,234.46,Pr,   234.46(BP est)      0.37(MP est)      ----(BP exp)      ----(MP exp)  IC(POC)I ,0.37,Pred,N
CFI2OP,O=PC(I)(F)I,6,6,13485,331.791,(fluorodiiodomethyl)(oxo)phosphane,N,O=PC(I)(F)I,"InChI=1S/CFI2OP/c2-1(3,4)6-5",InChIKey=CNXDVKQPSMEOKM-UHFFFAOYSA-N,243.64,Pr,   243.64(BP est)     20.99(MP est)      ----(BP exp)      ----(MP exp)  O=PC(I)(F)I ,20.99,Pred,N
C2H4FI2P,PC(CI)(F)I,10,6,13486,331.835,"(1-fluoro-1,2-diiodoethyl)phosphane",N,PC(CI)(F)I,"InChI=1S/C2H4FI2P/c3-2(5,6)1-4/h1,6H2",InChIKey=NPTSHXAONLWCLT-UHFFFAOYSA-N,225.62,Pr,   225.62(BP est)      3.86(MP est)      ----(BP exp)      ----(MP exp)  PC(CI)(F)I ,3.86,Pred,N
C2H4FI2P,PC(F)C(I)I,10,6,13487,331.835,"(1-fluoro-2,2-diiodoethyl)phosphane",N,PC(F)C(I)I,"InChI=1S/C2H4FI2P/c3-1(6)2(4)5/h1-2H,6H2",InChIKey=AVBRGMBXXFBPKM-UHFFFAOYSA-N,221.74,Pr,   221.74(BP est)    -13.49(MP est)      ----(BP exp)      ----(MP exp)  PC(F)C(I)I ,-13.49,Pred,N
C2H4FI2P,PC(CF)(I)I,10,6,13488,331.835,"(2-fluoro-1,1-diiodoethyl)phosphane",N,PC(CF)(I)I,"InChI=1S/C2H4FI2P/c3-1-2(4,5)6/h1,6H2",InChIKey=HHUKIMLEMOZEIX-UHFFFAOYSA-N,225.62,Pr,   225.62(BP est)      3.86(MP est)      ----(BP exp)      ----(MP exp)  PC(CF)(I)I ,3.86,Pred,N
C2H4FI2P,PC(I)C(F)I,10,6,13489,331.835,"(2-fluoro-1,2-diiodoethyl)phosphane",N,PC(I)C(F)I,"InChI=1S/C2H4FI2P/c3-1(4)2(5)6/h1-2H,6H2",InChIKey=RQUIYBFNDMHJPL-UHFFFAOYSA-N,221.74,Pr,   221.74(BP est)    -13.49(MP est)      ----(BP exp)      ----(MP exp)  PC(I)C(F)I ,-13.49,Pred,N
C2H4FI2P,PCC(I)(F)I,10,6,13490,331.835,"(2-fluoro-2,2-diiodoethyl)phosphane",N,PCC(I)(F)I,"InChI=1S/C2H4FI2P/c3-2(4,5)1-6/h1,6H2",InChIKey=MZDDQBDDAOHAKX-UHFFFAOYSA-N,225.62,Pr,   225.62(BP est)      3.86(MP est)      ----(BP exp)      ----(MP exp)  PCC(I)(F)I ,3.86,Pred,N
C2H4FI2P,FCPC(I)I,10,6,13491,331.835,(diiodomethyl)(fluoromethyl)phosphane,N,FCPC(I)I,"InChI=1S/C2H4FI2P/c3-1-6-2(4)5/h2,6H,1H2",InChIKey=CIXXXXGXDVNYCO-UHFFFAOYSA-N,216.86,Pr,   216.86(BP est)    -15.59(MP est)      ----(BP exp)      ----(MP exp)  FCPC(I)I ,-15.59,Pred,N
C2H4FI2P,CPC(I)(F)I,10,6,13492,331.835,(fluorodiiodomethyl)(methyl)phosphane,N,CPC(I)(F)I,"InChI=1S/C2H4FI2P/c1-6-2(3,4)5/h6H,1H3",InChIKey=JIUCAMFMQWULSG-UHFFFAOYSA-N,209.21,Pr,   209.21(BP est)     -9.12(MP est)      ----(BP exp)      ----(MP exp)  CPC(I)(F)I ,-9.12,Pred,N
C2H4FI2P,ICPC(F)I,10,6,13493,331.835,(fluoroiodomethyl)(iodomethyl)phosphane,N,ICPC(F)I,"InChI=1S/C2H4FI2P/c3-2(5)6-1-4/h2,6H,1H2",InChIKey=RXJVKUPOUGWRAS-UHFFFAOYSA-N,216.86,Pr,   216.86(BP est)    -15.59(MP est)      ----(BP exp)      ----(MP exp)  ICPC(F)I ,-15.59,Pred,N
C2H2Br2IP,PC(Br)=C(Br)I,8,6,13503,343.724,"(1,2-dibromo-2-iodovinyl)phosphane",N,PC(Br)=C(Br)I,InChI=1S/C2H2Br2IP/c3-1(5)2(4)6/h6H2,InChIKey=JSRONVAYCJUMCD-UHFFFAOYSA-N,268.66,Pr,   268.66(BP est)     29.19(MP est)      ----(BP exp)      ----(MP exp)  PC(Br)=C(Br)I ,29.19,Pred,N
C2H2Br2IP,PC(I)=C(Br)Br,8,6,13504,343.724,"(2,2-dibromo-1-iodovinyl)phosphane",N,PC(I)=C(Br)Br,InChI=1S/C2H2Br2IP/c3-1(4)2(5)6/h6H2,InChIKey=QRKJSFJXBFZBFB-UHFFFAOYSA-N,268.66,Pr,   268.66(BP est)     29.19(MP est)      ----(BP exp)      ----(MP exp)  PC(I)=C(Br)Br ,29.19,Pred,N
C2H2Br2IP,IC1C(Br)(Br)P1,8,6,13505,343.724,"2,2-dibromo-3-iodophosphirane",N,IC1C(Br)(Br)P1,"InChI=1S/C2H2Br2IP/c3-2(4)1(5)6-2/h1,6H",InChIKey=ICIBOFXJFCVFSG-UHFFFAOYSA-N,245.37,Pr,   245.37(BP est)     44.05(MP est)      ----(BP exp)      ----(MP exp)  IC1C(Br)(Br)P1 ,44.05,Pred,N
C2H2Br2IP,BrC1C(I)(Br)P1,8,6,13506,343.724,"2,3-dibromo-2-iodophosphirane",N,BrC1C(I)(Br)P1,"InChI=1S/C2H2Br2IP/c3-1-2(4,5)6-1/h1,6H",InChIKey=DITAGUOGBPOVNF-UHFFFAOYSA-N,245.37,Pr,   245.37(BP est)     44.05(MP est)      ----(BP exp)      ----(MP exp)  BrC1C(I)(Br)P1 ,44.05,Pred,N
C2H4Br2IP,PC(CI)(Br)Br,10,6,13508,345.74,"(1,1-dibromo-2-iodoethyl)phosphane",N,PC(CI)(Br)Br,"InChI=1S/C2H4Br2IP/c3-2(4,6)1-5/h1,6H2",InChIKey=YUYHHWGKJXQOFA-UHFFFAOYSA-N,255.83,Pr,   255.83(BP est)     43.15(MP est)      ----(BP exp)      ----(MP exp)  PC(CI)(Br)Br ,43.15,Pred,N
C2H4Br2IP,PC(CBr)(Br)I,10,6,13509,345.74,"(1,2-dibromo-1-iodoethyl)phosphane",N,PC(CBr)(Br)I,"InChI=1S/C2H4Br2IP/c3-1-2(4,5)6/h1,6H2",InChIKey=QBEKPOQQZDPUOJ-UHFFFAOYSA-N,255.83,Pr,   255.83(BP est)     43.15(MP est)      ----(BP exp)      ----(MP exp)  PC(CBr)(Br)I ,43.15,Pred,N
C2H4Br2IP,PC(Br)C(Br)I,10,6,13510,345.74,"(1,2-dibromo-2-iodoethyl)phosphane",N,PC(Br)C(Br)I,"InChI=1S/C2H4Br2IP/c3-1(5)2(4)6/h1-2H,6H2",InChIKey=QKDHHJJFLGYRFE-UHFFFAOYSA-N,252.26,Pr,   252.26(BP est)     25.90(MP est)      ----(BP exp)      ----(MP exp)  PC(Br)C(Br)I ,25.9,Pred,N
C2H4Br2IP,PC(I)C(Br)Br,10,6,13511,345.74,"(2,2-dibromo-1-iodoethyl)phosphane",N,PC(I)C(Br)Br,"InChI=1S/C2H4Br2IP/c3-1(4)2(5)6/h1-2H,6H2",InChIKey=OFYHOAXLQYGAMV-UHFFFAOYSA-N,252.26,Pr,   252.26(BP est)     25.90(MP est)      ----(BP exp)      ----(MP exp)  PC(I)C(Br)Br ,25.9,Pred,N
C2H4Br2IP,PCC(I)(Br)Br,10,6,13512,345.74,"(2,2-dibromo-2-iodoethyl)phosphane",N,PCC(I)(Br)Br,"InChI=1S/C2H4Br2IP/c3-2(4,5)1-6/h1,6H2",InChIKey=MUMFKXYGJCCNPM-UHFFFAOYSA-N,255.83,Pr,   255.83(BP est)     43.15(MP est)      ----(BP exp)      ----(MP exp)  PCC(I)(Br)Br ,43.15,Pred,N
C2H4Br2IP,BrCPC(Br)I,10,6,13513,345.74,(bromoiodomethyl)(bromomethyl)phosphane,N,BrCPC(Br)I,"InChI=1S/C2H4Br2IP/c3-1-6-2(4)5/h2,6H,1H2",InChIKey=LKIFJKANUFMQCB-UHFFFAOYSA-N,247.78,Pr,   247.78(BP est)     23.91(MP est)      ----(BP exp)      ----(MP exp)  BrCPC(Br)I ,23.91,Pred,N
C2H4Br2IP,CPC(I)(Br)Br,10,6,13514,345.74,(dibromoiodomethyl)(methyl)phosphane,N,CPC(I)(Br)Br,"InChI=1S/C2H4Br2IP/c1-6-2(3,4)5/h6H,1H3",InChIKey=MCGMDULMTOPFCE-UHFFFAOYSA-N,240.72,Pr,   240.72(BP est)     30.56(MP est)      ----(BP exp)      ----(MP exp)  CPC(I)(Br)Br ,30.56,Pred,N
C2H4Br2IP,ICPC(Br)Br,10,6,13515,345.74,(dibromomethyl)(iodomethyl)phosphane,N,ICPC(Br)Br,"InChI=1S/C2H4Br2IP/c3-2(4)6-1-5/h2,6H,1H2",InChIKey=MZJIKICSEQIVHD-UHFFFAOYSA-N,247.78,Pr,   247.78(BP est)     23.91(MP est)      ----(BP exp)      ----(MP exp)  ICPC(Br)Br ,23.91,Pred,N
C2H2ClI2P,PC(Cl)=C(I)I,8,6,13516,346.271,"(1-chloro-2,2-diiodovinyl)phosphane",N,PC(Cl)=C(I)I,InChI=1S/C2H2ClI2P/c3-1(6)2(4)5/h6H2,InChIKey=FGXDSHBEJDAICY-UHFFFAOYSA-N,263.98,Pr,   263.98(BP est)     12.01(MP est)      ----(BP exp)      ----(MP exp)  PC(Cl)=C(I)I ,12.01,Pred,N
C2H2ClI2P,PC(I)=C(Cl)I,8,6,13517,346.271,"(2-chloro-1,2-diiodovinyl)phosphane",N,PC(I)=C(Cl)I,InChI=1S/C2H2ClI2P/c3-1(4)2(5)6/h6H2,InChIKey=ZSCMMXDOTXNXAU-UHFFFAOYSA-N,263.98,Pr,   263.98(BP est)     12.01(MP est)      ----(BP exp)      ----(MP exp)  PC(I)=C(Cl)I ,12.01,Pred,N
C2H2ClI2P,IC1C(I)(Cl)P1,8,6,13518,346.271,"2-chloro-2,3-diiodophosphirane",N,IC1C(I)(Cl)P1,"InChI=1S/C2H2ClI2P/c3-2(5)1(4)6-2/h1,6H",InChIKey=XCEQEOPGHBRNBW-UHFFFAOYSA-N,241.94,Pr,   241.94(BP est)     34.45(MP est)      ----(BP exp)      ----(MP exp)  IC1C(I)(Cl)P1 ,34.45,Pred,N
C2H2ClI2P,ClC1C(I)(I)P1,8,6,13519,346.271,"3-chloro-2,2-diiodophosphirane",N,ClC1C(I)(I)P1,"InChI=1S/C2H2ClI2P/c3-1-2(4,5)6-1/h1,6H",InChIKey=BPIXYAYLYFQOSH-UHFFFAOYSA-N,251.55,Pr,   251.55(BP est)     37.26(MP est)      ----(BP exp)      ----(MP exp)  ClC1C(I)(I)P1 ,37.26,Pred,N
C2H4ClI2P,PC(CI)(Cl)I,10,6,13521,348.287,"(1-chloro-1,2-diiodoethyl)phosphane",N,PC(CI)(Cl)I,"InChI=1S/C2H4ClI2P/c3-2(5,6)1-4/h1,6H2",InChIKey=AVCSAKUFEWZPII-UHFFFAOYSA-N,252.5,Pr,   252.50(BP est)     26.37(MP est)      ----(BP exp)      ----(MP exp)  PC(CI)(Cl)I ,26.37,Pred,N
C2H4ClI2P,PC(Cl)C(I)I,10,6,13522,348.287,"(1-chloro-2,2-diiodoethyl)phosphane",N,PC(Cl)C(I)I,"InChI=1S/C2H4ClI2P/c3-1(6)2(4)5/h1-2H,6H2",InChIKey=RMSCQCACWGEJLH-UHFFFAOYSA-N,258.32,Pr,   258.32(BP est)     11.86(MP est)      ----(BP exp)      ----(MP exp)  PC(Cl)C(I)I ,11.86,Pred,N
C2H4ClI2P,PC(CCl)(I)I,10,6,13523,348.287,"(2-chloro-1,1-diiodoethyl)phosphane",N,PC(CCl)(I)I,"InChI=1S/C2H4ClI2P/c3-1-2(4,5)6/h1,6H2",InChIKey=NPRHPAVOJVMJGT-UHFFFAOYSA-N,270.9,Pr,   270.90(BP est)     31.74(MP est)      ----(BP exp)      ----(MP exp)  PC(CCl)(I)I ,31.74,Pred,N
C2H4ClI2P,PC(I)C(Cl)I,10,6,13524,348.287,"(2-chloro-1,2-diiodoethyl)phosphane",N,PC(I)C(Cl)I,"InChI=1S/C2H4ClI2P/c3-1(4)2(5)6/h1-2H,6H2",InChIKey=NOIQPWWBNZWARC-UHFFFAOYSA-N,258.32,Pr,   258.32(BP est)     11.86(MP est)      ----(BP exp)      ----(MP exp)  PC(I)C(Cl)I ,11.86,Pred,N
C2H4ClI2P,PCC(I)(Cl)I,10,6,13525,348.287,"(2-chloro-2,2-diiodoethyl)phosphane",N,PCC(I)(Cl)I,"InChI=1S/C2H4ClI2P/c3-2(4,5)1-6/h1,6H2",InChIKey=KZLUBDJRIVYTOU-UHFFFAOYSA-N,252.5,Pr,   252.50(BP est)     26.37(MP est)      ----(BP exp)      ----(MP exp)  PCC(I)(Cl)I ,26.37,Pred,N
C2H4ClI2P,CPC(I)(Cl)I,10,6,13526,348.287,(chlorodiiodomethyl)(methyl)phosphane,N,CPC(I)(Cl)I,"InChI=1S/C2H4ClI2P/c1-6-2(3,4)5/h6H,1H3",InChIKey=OYOXYUAKFCHQEN-UHFFFAOYSA-N,237.25,Pr,   237.25(BP est)     13.73(MP est)      ----(BP exp)      ----(MP exp)  CPC(I)(Cl)I ,13.73,Pred,N
C2H4ClI2P,ICPC(Cl)I,10,6,13527,348.287,(chloroiodomethyl)(iodomethyl)phosphane,N,ICPC(Cl)I,"InChI=1S/C2H4ClI2P/c3-2(5)6-1-4/h2,6H,1H2",InChIKey=JBKWAWNIVNAYSA-UHFFFAOYSA-N,253.91,Pr,   253.91(BP est)      9.89(MP est)      ----(BP exp)      ----(MP exp)  ICPC(Cl)I ,9.89,Pred,N
C2H4ClI2P,ClCPC(I)I,10,6,13528,348.287,(chloromethyl)(diiodomethyl)phosphane,N,ClCPC(I)I,"InChI=1S/C2H4ClI2P/c3-1-6-2(4)5/h2,6H,1H2",InChIKey=RSXAYFHBLFILAX-UHFFFAOYSA-N,263.22,Pr,   263.22(BP est)     12.61(MP est)      ----(BP exp)      ----(MP exp)  ClCPC(I)I ,12.61,Pred,N
C3H4FOP,FC(C#C)[P]([H])([H])=O,10,6,14974,106.036,(1-fluoroprop-2-yn-1-yl)phosphine oxide,N,C#CC(F)P=O,"InChI=1S/C3H4FOP/c1-2-3(4)6-5/h1,3H,6H2",InChIKey=ZBWPQTQHZMLVGL-UHFFFAOYSA-N,104.94,Pr,   104.94(BP est)    -51.52(MP est)      ----(BP exp)      ----(MP exp)  C#CC(F)P=O ,-51.52,Pred,N
C3H4FOP,FC#CC[P]([H])([H])=O,10,6,14975,106.036,(3-fluoroprop-2-yn-1-yl)phosphine oxide,N,O=PCC#CF,"InChI=1S/C3H4FOP/c4-2-1-3-6-5/h3,6H2",InChIKey=HCXJEOWTENDULJ-UHFFFAOYSA-N,127.78,Pr,   127.78(BP est)     -7.79(MP est)      ----(BP exp)      ----(MP exp)  O=PCC#CF ,-7.79,Pred,N
C2H5O3P,OC(=O)C[P]([H])([H])=O,11,6,14976,108.033,2-dihydrophosphorylacetic acid,N,O=PCC(=O)O,"InChI=1S/C2H5O3P/c3-2(4)1-6-5/h1,6H2,(H,3,4)",InChIKey=GXSOMRMBVNHZBI-UHFFFAOYSA-N,217.8,Pr,   217.80(BP est)     31.04(MP est)      ----(BP exp)      ----(MP exp)  O=PCC(=O)O ,31.04,Pred,N
C3H6FOP,FC(C=C)[P]([H])([H])=O,12,6,14977,108.052,(1-fluoroallyl)phosphine oxide,N,C=CC(F)P=O,"InChI=1S/C3H6FOP/c1-2-3(4)6-5/h2-3H,1,6H2",InChIKey=JUKJKONRNHDQTJ-UHFFFAOYSA-N,94.71,Pr,    94.71(BP est)    -78.88(MP est)      ----(BP exp)      ----(MP exp)  C=CC(F)P=O ,-78.88,Pred,N
C3H6FOP,FC=CC[P]([H])([H])=O,12,6,14978,108.052,(3-fluoroallyl)phosphine oxide,N,O=PCC=CF,"InChI=1S/C3H6FOP/c4-2-1-3-6-5/h1-2H,3,6H2",InChIKey=OJMNWNATMNBQRV-UHFFFAOYSA-N,118.14,Pr,   118.14(BP est)    -66.19(MP est)      ----(BP exp)      ----(MP exp)  O=PCC=CF ,-66.19,Pred,N
C3H8FOP,FCCC[P]([H])([H])=O,14,6,14982,110.068,(3-fluoropropyl)phosphine oxide,N,O=PCCCF,"InChI=1S/C3H8FOP/c4-2-1-3-6-5/h1-3,6H2",InChIKey=ZGUYEVBAUJANTC-UHFFFAOYSA-N,110.91,Pr,   110.91(BP est)    -65.76(MP est)      ----(BP exp)      ----(MP exp)  O=PCCCF ,-65.76,Pred,N
C2H3F2OP,FC(=CF)[P]([H])([H])=O,9,6,14985,112.016,"(1,2-difluorovinyl)phosphine oxide",N,O=PC(F)=CF,"InChI=1S/C2H3F2OP/c3-1-2(4)6-5/h1H,6H2",InChIKey=CQBHQXWCNDUMCC-UHFFFAOYSA-N,90.1,Pr,    90.10(BP est)    -86.70(MP est)      ----(BP exp)      ----(MP exp)  O=PC(F)=CF ,-86.7,Pred,N
C2H3F2OP,FC(F)=C[P]([H])([H])=O,9,6,14986,112.016,"(2,2-difluorovinyl)phosphine oxide",N,O=PC=C(F)F,"InChI=1S/C2H3F2OP/c3-2(4)1-6-5/h1H,6H2",InChIKey=HEORCGFNBXQITP-UHFFFAOYSA-N,90.1,Pr,    90.10(BP est)    -86.70(MP est)      ----(BP exp)      ----(MP exp)  O=PC=C(F)F ,-86.7,Pred,N
C2H5F2OP,FC(C)(F)[P]([H])([H])=O,11,6,14989,114.032,"(1,1-difluoroethyl)phosphine oxide",N,CC(F)(F)P=O,"InChI=1S/C2H5F2OP/c1-2(3,4)6-5/h6H2,1H3",InChIKey=VIMLEICABRZAID-UHFFFAOYSA-N,64.39,Pr,    64.39(BP est)    -83.48(MP est)      ----(BP exp)      ----(MP exp)  CC(F)(F)P=O ,-83.48,Pred,N
C2H5F2OP,FC(CF)[P]([H])([H])=O,11,6,14990,114.032,"(1,2-difluoroethyl)phosphine oxide",N,O=PC(F)CF,"InChI=1S/C2H5F2OP/c3-1-2(4)6-5/h2H,1,6H2",InChIKey=STRKCOYXYVGHDC-UHFFFAOYSA-N,74.35,Pr,    74.35(BP est)    -89.28(MP est)      ----(BP exp)      ----(MP exp)  O=PC(F)CF ,-89.28,Pred,N
C2H5F2OP,FC(F)C[P]([H])([H])=O,11,6,14991,114.032,"(2,2-difluoroethyl)phosphine oxide",N,O=PCC(F)F,"InChI=1S/C2H5F2OP/c3-2(4)1-6-5/h2H,1,6H2",InChIKey=PLVTZBDZYXGDJT-UHFFFAOYSA-N,74.35,Pr,    74.35(BP est)    -89.28(MP est)      ----(BP exp)      ----(MP exp)  O=PCC(F)F ,-89.28,Pred,N
CH2F3OP,FC(F)(F)[P]([H])([H])=O,8,6,14994,117.995,(trifluoromethyl)phosphine oxide,N,O=PC(F)(F)F,"InChI=1S/CH2F3OP/c2-1(3,4)6-5/h6H2",InChIKey=XVHIIIKLHIPLHQ-UHFFFAOYSA-N,41.17,Pr,    41.17(BP est)    -95.60(MP est)      ----(BP exp)      ----(MP exp)  O=PC(F)(F)F ,-95.6,Pred,N
C3H4ClOP,ClC#CC[P]([H])([H])=O,10,6,14995,122.488,(3-chloroprop-2-yn-1-yl)phosphine oxide,N,O=PCC#CCl,"InChI=1S/C3H4ClOP/c4-2-1-3-6-5/h3,6H2",InChIKey=MCRWRXUYMIMYNZ-UHFFFAOYSA-N,159.07,Pr,   159.07(BP est)     16.01(MP est)      ----(BP exp)      ----(MP exp)  O=PCC#CCl ,16.01,Pred,N