Formula,SMILES,Tot_atoms,Tot_nH_atoms,Dataset_no,Molecular_weight,IUPAC_chemname,Metalloid,EPISUITE,InChI_Code,InChI_Key,Boiling_Point,BP_basis,EPIsuite_output,MP,Basis,Life
C4H8ClP,ClC=CCCP,14,6,6111,122.532,(4-chlorobut-3-en-1-yl)phosphane,N,ClC=CCCP,"InChI=1S/C4H8ClP/c5-3-1-2-4-6/h1,3H,2,4,6H2",InChIKey=BNEZEIRCFRJXNK-UHFFFAOYSA-N,127.75,Pr,   127.75(BP est)    -60.59(MP est)      ----(BP exp)      ----(MP exp)  ClC=CCCP ,-60.59,Pred,N
C4H8ClP,CC(P)C=CCl,14,6,6112,122.532,(4-chlorobut-3-en-2-yl)phosphane,N,CC(P)C=CCl,"InChI=1S/C4H8ClP/c1-4(6)2-3-5/h2-4H,6H2,1H3",InChIKey=YCYDCTPOVHRCIH-UHFFFAOYSA-N,113.74,Pr,   113.74(BP est)    -72.18(MP est)      ----(BP exp)      ----(MP exp)  CC(P)C=CCl ,-72.18,Pred,N
C4H8ClP,ClC(P)C1CC1,14,6,6113,122.532,(chloro(cyclopropyl)methyl)phosphane,N,ClC(P)C1CC1,"InChI=1S/C4H8ClP/c5-4(6)3-1-2-3/h3-4H,1-2,6H2",InChIKey=XQTSYPLJURLBMX-UHFFFAOYSA-N,125.27,Pr,   125.27(BP est)    -57.30(MP est)      ----(BP exp)      ----(MP exp)  ClC(P)C1CC1 ,-57.3,Pred,N
C4H8ClP,ClCPC1CC1,14,6,6114,122.532,(chloromethyl)(cyclopropyl)phosphane,N,ClCPC1CC1,"InChI=1S/C4H8ClP/c5-3-6-4-1-2-4/h4,6H,1-3H2",InChIKey=KEVIXXFQMYHJRP-UHFFFAOYSA-N,131.9,Pr,   131.90(BP est)    -56.05(MP est)      ----(BP exp)      ----(MP exp)  ClCPC1CC1 ,-56.05,Pred,N
C4H8ClP,CP(CCl)C=C,14,6,6115,122.532,(chloromethyl)(methyl)(vinyl)phosphane,N,CP(CCl)C=C,"InChI=1S/C4H8ClP/c1-3-6(2)4-5/h3H,1,4H2,2H3",InChIKey=UADREEMTQAVLBK-UHFFFAOYSA-N,127.22,Pr,   127.22(BP est)    -67.96(MP est)      ----(BP exp)      ----(MP exp)  CP(CCl)C=C ,-67.96,Pred,N
C4H8ClP,ClC(P1CC1)C,14,6,6116,122.532,1-(1-chloroethyl)phosphirane,N,ClC(P1CC1)C,"InChI=1S/C4H8ClP/c1-4(5)6-2-3-6/h4H,2-3H2,1H3",InChIKey=MTCLCPKDGBYEFH-UHFFFAOYSA-N,110.78,Pr,   110.78(BP est)    -66.52(MP est)      ----(BP exp)      ----(MP exp)  ClC(P1CC1)C ,-66.52,Pred,N
C4H8ClP,ClCCP1CC1,14,6,6117,122.532,1-(2-chloroethyl)phosphirane,N,ClCCP1CC1,InChI=1S/C4H8ClP/c5-1-2-6-3-4-6/h1-4H2,InChIKey=RITFLJKVJUPHSF-UHFFFAOYSA-N,137.31,Pr,   137.31(BP est)    -51.28(MP est)      ----(BP exp)      ----(MP exp)  ClCCP1CC1 ,-51.28,Pred,N
C4H8ClP,ClCP1CCC1,14,6,6118,122.532,1-(chloromethyl)phosphetane,N,ClCP1CCC1,InChI=1S/C4H8ClP/c5-4-6-2-1-3-6/h1-4H2,InChIKey=LXYQNCKPOKGRRU-UHFFFAOYSA-N,139.37,Pr,   139.37(BP est)    -52.44(MP est)      ----(BP exp)      ----(MP exp)  ClCP1CCC1 ,-52.44,Pred,N
C4H8ClP,ClC1CP1CC,14,6,6119,122.532,2-chloro-1-ethylphosphirane,N,ClC1CP1CC,"InChI=1S/C4H8ClP/c1-2-6-3-4(6)5/h4H,2-3H2,1H3",InChIKey=ICKCHRWTPFZQTI-UHFFFAOYSA-N,118.12,Pr,   118.12(BP est)    -59.00(MP est)      ----(BP exp)      ----(MP exp)  ClC1CP1CC ,-59,Pred,N
C4H8ClP,CP1C(Cl)CC1,14,6,6120,122.532,2-chloro-1-methylphosphetane,N,CP1C(Cl)CC1,"InChI=1S/C4H8ClP/c1-6-3-2-4(6)5/h4H,2-3H2,1H3",InChIKey=KYTYGTZDOLBWCE-UHFFFAOYSA-N,120.26,Pr,   120.26(BP est)    -60.14(MP est)      ----(BP exp)      ----(MP exp)  CP1C(Cl)CC1 ,-60.14,Pred,N
C4H8ClP,ClC1PCCC1,14,6,6121,122.532,2-chlorophospholane,N,ClC1PCCC1,"InChI=1S/C4H8ClP/c5-4-2-1-3-6-4/h4,6H,1-3H2",InChIKey=QRRUFWMAIUYUTR-UHFFFAOYSA-N,121.46,Pr,   121.46(BP est)    -60.86(MP est)      ----(BP exp)      ----(MP exp)  ClC1PCCC1 ,-60.86,Pred,N
C4H8ClP,CP1CC(Cl)C1,14,6,6122,122.532,3-chloro-1-methylphosphetane,N,CP1CC(Cl)C1,"InChI=1S/C4H8ClP/c1-6-2-4(5)3-6/h4H,2-3H2,1H3",InChIKey=BYGXZNNGOSOZPO-UHFFFAOYSA-N,120.26,Pr,   120.26(BP est)    -60.14(MP est)      ----(BP exp)      ----(MP exp)  CP1CC(Cl)C1 ,-60.14,Pred,N
C4H8ClP,ClC1CCPC1,14,6,6123,122.532,3-chlorophospholane,N,ClC1CCPC1,"InChI=1S/C4H8ClP/c5-4-1-2-6-3-4/h4,6H,1-3H2",InChIKey=ZGDSJDDVBPACEO-UHFFFAOYSA-N,121.46,Pr,   121.46(BP est)    -60.86(MP est)      ----(BP exp)      ----(MP exp)  ClC1CCPC1 ,-60.86,Pred,N
C4H8ClP,ClCPCC=C,14,6,6124,122.532,allyl(chloromethyl)phosphane,N,ClCPCC=C,"InChI=1S/C4H8ClP/c1-2-3-6-4-5/h2,6H,1,3-4H2",InChIKey=CUPUPWMKDMVGPW-UHFFFAOYSA-N,126.3,Pr,   126.30(BP est)    -67.54(MP est)      ----(BP exp)      ----(MP exp)  ClCPCC=C ,-67.54,Pred,N
C3H10NPS,S=P(NC)(C)C,16,6,6224,123.154,"N,P,P-trimethylphosphinothioic amide",N,S=P(NC)(C)C,"InChI=1S/C3H10NPS/c1-4-5(2,3)6/h1-3H3,(H,4,6)",InChIKey=RNOARWFQKFRPKK-UHFFFAOYSA-N,140.58,Pr,   140.58(BP est)   -107.44(MP est)      ----(BP exp)      ----(MP exp)  S=P(NC)(C)C ,-107.44,Pred,N
C3H9OPS,CP(C)(=S)OC,15,6,6244,124.138,O-methyl dimethylphosphinothioate,N,CP(C)(=S)OC,"InChI=1S/C3H9OPS/c1-4-5(2,3)6/h1-3H3",InChIKey=GAHXOXQSTKWBME-UHFFFAOYSA-N,121.62,Pr,   121.62(BP est)   -128.19(MP est)      ----(BP exp)      ----(MP exp)  CP(C)(=S)OC ,-128.19,Pred,N
C3H9OPS,CP(C)(=O)SC,15,6,6245,124.138,S-methyl dimethylphosphinothioate,N,CP(C)(=O)SC,"InChI=1S/C3H9OPS/c1-5(2,4)6-3/h1-3H3",InChIKey=QUVGDXXAHKBWGD-UHFFFAOYSA-N,168.9,Pr,   168.90(BP est)    -48.30(MP est)      ----(BP exp)      ----(MP exp)  CP(C)(=O)SC ,-48.3,Pred,N
C2H2ClO2P,O=P(C#CCl)O,8,6,6259,124.46,(chloroethynyl)phosphinic acid,N,O=P(C#CCl)O,"InChI=1S/C2H2ClO2P/c3-1-2-6(4)5/h6H,(H,4,5)",InChIKey=SZUMGWVULDQWBL-UHFFFAOYSA-N,227.36,Pr,   227.36(BP est)     37.73(MP est)      ----(BP exp)      ----(MP exp)  O=P(C#CCl)O ,37.73,Pred,N
C3H3ClFP,PC(C#C)(Cl)F,9,6,6261,124.479,(1-chloro-1-fluoroprop-2-yn-1-yl)phosphane,N,PC(C#C)(Cl)F,"InChI=1S/C3H3ClFP/c1-2-3(4,5)6/h1H,6H2",InChIKey=JKHVPWGMTVHPNW-UHFFFAOYSA-N,85.7,Pr,    85.70(BP est)    -50.97(MP est)      ----(BP exp)      ----(MP exp)  PC(C#C)(Cl)F ,-50.97,Pred,N
C3H3ClFP,PC(Cl)C#CF,9,6,6262,124.479,(1-chloro-3-fluoroprop-2-yn-1-yl)phosphane,N,PC(Cl)C#CF,"InChI=1S/C3H3ClFP/c4-3(6)1-2-5/h3H,6H2",InChIKey=HZIYEXHJBFVVAQ-UHFFFAOYSA-N,117.19,Pr,   117.19(BP est)    -20.92(MP est)      ----(BP exp)      ----(MP exp)  PC(Cl)C#CF ,-20.92,Pred,N
C3H3ClFP,PC(F)C#CCl,9,6,6263,124.479,(3-chloro-1-fluoroprop-2-yn-1-yl)phosphane,N,PC(F)C#CCl,"InChI=1S/C3H3ClFP/c4-2-1-3(5)6/h3H,6H2",InChIKey=OGKHMVDNHXTLOC-UHFFFAOYSA-N,102.22,Pr,   102.22(BP est)    -25.29(MP est)      ----(BP exp)      ----(MP exp)  PC(F)C#CCl ,-25.29,Pred,N
C3H3ClFP,FCPC#CCl,9,6,6264,124.479,(chloroethynyl)(fluoromethyl)phosphane,N,FCPC#CCl,"InChI=1S/C3H3ClFP/c4-1-2-6-3-5/h6H,3H2",InChIKey=RJAPPMIYEAQDBK-UHFFFAOYSA-N,96.05,Pr,    96.05(BP est)    -27.78(MP est)      ----(BP exp)      ----(MP exp)  FCPC#CCl ,-27.78,Pred,N
C3H3ClFP,ClC(PC#C)F,9,6,6265,124.479,(chlorofluoromethyl)(ethynyl)phosphane,N,ClC(PC#C)F,"InChI=1S/C3H3ClFP/c1-2-6-3(4)5/h1,3,6H",InChIKey=HMYLSDFXKSXKFY-UHFFFAOYSA-N,87.7,Pr,    87.70(BP est)    -67.28(MP est)      ----(BP exp)      ----(MP exp)  ClC(PC#C)F ,-67.28,Pred,N
C3H3ClFP,ClCPC#CF,9,6,6266,124.479,(chloromethyl)(fluoroethynyl)phosphane,N,ClCPC#CF,"InChI=1S/C3H3ClFP/c4-3-6-2-1-5/h6H,3H2",InChIKey=GFUTWUNMEGAWMF-UHFFFAOYSA-N,123.92,Pr,   123.92(BP est)    -19.64(MP est)      ----(BP exp)      ----(MP exp)  ClCPC#CF ,-19.64,Pred,N
C3H3ClFP,ClC1(F)C=CP1,9,6,6267,124.479,"2-chloro-2-fluoro-1,2-dihydrophosphete",N,ClC1(F)C=CP1,"InChI=1S/C3H3ClFP/c4-3(5)1-2-6-3/h1-2,6H",InChIKey=JUJKLZUCVKXTTJ-UHFFFAOYSA-N,74.88,Pr,    74.88(BP est)    -65.71(MP est)      ----(BP exp)      ----(MP exp)  ClC1(F)C=CP1 ,-65.71,Pred,N
C3H3ClFP,ClC1C(F)=CP1,9,6,6268,124.479,"2-chloro-3-fluoro-1,2-dihydrophosphete",N,ClC1C(F)=CP1,"InChI=1S/C3H3ClFP/c4-3-2(5)1-6-3/h1,3,6H",InChIKey=CHPWGHLQXMFRBA-UHFFFAOYSA-N,99.04,Pr,    99.04(BP est)    -64.34(MP est)      ----(BP exp)      ----(MP exp)  ClC1C(F)=CP1 ,-64.34,Pred,N
C3H3ClFP,ClC1C=C(F)P1,9,6,6269,124.479,"2-chloro-4-fluoro-1,2-dihydrophosphete",N,ClC1C=C(F)P1,"InChI=1S/C3H3ClFP/c4-2-1-3(5)6-2/h1-2,6H",InChIKey=GBWMHGRJNVQCFZ-UHFFFAOYSA-N,99.04,Pr,    99.04(BP est)    -64.34(MP est)      ----(BP exp)      ----(MP exp)  ClC1C=C(F)P1 ,-64.34,Pred,N
C3H3ClFP,FC1C(Cl)=CP1,9,6,6270,124.479,"3-chloro-2-fluoro-1,2-dihydrophosphete",N,FC1C(Cl)=CP1,"InChI=1S/C3H3ClFP/c4-2-1-6-3(2)5/h1,3,6H",InChIKey=OEDWBCBPPVMPRD-UHFFFAOYSA-N,83.63,Pr,    83.63(BP est)    -68.84(MP est)      ----(BP exp)      ----(MP exp)  FC1C(Cl)=CP1 ,-68.84,Pred,N
C3H3ClFP,FC1=C(CP1)Cl,9,6,6271,124.479,"3-chloro-4-fluoro-1,2-dihydrophosphete",N,FC1=C(CP1)Cl,"InChI=1S/C3H3ClFP/c4-2-1-6-3(2)5/h6H,1H2",InChIKey=DJGUXOPJUPBOOC-UHFFFAOYSA-N,88.64,Pr,    88.64(BP est)    -59.00(MP est)      ----(BP exp)      ----(MP exp)  FC1=C(CP1)Cl ,-59,Pred,N
C3H3ClFP,FC1C=C(Cl)P1,9,6,6272,124.479,"4-chloro-2-fluoro-1,2-dihydrophosphete",N,FC1C=C(Cl)P1,"InChI=1S/C3H3ClFP/c4-2-1-3(5)6-2/h1,3,6H",InChIKey=DYNSTMFAVUDFRJ-UHFFFAOYSA-N,83.63,Pr,    83.63(BP est)    -68.84(MP est)      ----(BP exp)      ----(MP exp)  FC1C=C(Cl)P1 ,-68.84,Pred,N
C3H3ClFP,ClC1=C(CP1)F,9,6,6273,124.479,"4-chloro-3-fluoro-1,2-dihydrophosphete",N,ClC1=C(CP1)F,"InChI=1S/C3H3ClFP/c4-3-2(5)1-6-3/h6H,1H2",InChIKey=GLLYZCIRKIEDHL-UHFFFAOYSA-N,88.64,Pr,    88.64(BP est)    -59.00(MP est)      ----(BP exp)      ----(MP exp)  ClC1=C(CP1)F ,-59,Pred,N
C3H6ClOP,O=PC(Cl)CC,12,6,6275,124.504,(1-chloropropyl)(oxo)phosphane,N,O=PC(Cl)CC,"InChI=1S/C3H6ClOP/c1-2-3(4)6-5/h3H,2H2,1H3",InChIKey=LYCJUIFEWOIVLM-UHFFFAOYSA-N,143.8,Pr,   143.80(BP est)    -49.00(MP est)      ----(BP exp)      ----(MP exp)  O=PC(Cl)CC ,-49,Pred,N
C3H6ClOP,ClC(POC)=C,12,6,6277,124.504,(1-chlorovinyl)(methoxy)phosphane,N,ClC(POC)=C,"InChI=1S/C3H6ClOP/c1-3(4)6-5-2/h6H,1H2,2H3",InChIKey=BLXWFDNZJRBZKV-UHFFFAOYSA-N,92.88,Pr,    92.88(BP est)    -78.80(MP est)      ----(BP exp)      ----(MP exp)  ClC(POC)=C ,-78.8,Pred,N
C3H6ClOP,O=P(C)C(Cl)=C,12,6,6278,124.504,(1-chlorovinyl)(methyl)phosphine oxide,N,O=P(C)C(Cl)=C,"InChI=1S/C3H6ClOP/c1-3(4)6(2)5/h6H,1H2,2H3",InChIKey=KWEDRANPVYJMTF-UHFFFAOYSA-N,133.2,Pr,   133.20(BP est)    -60.64(MP est)      ----(BP exp)      ----(MP exp)  O=P(C)C(Cl)=C ,-60.64,Pred,N
C3H6ClOP,O=PCC(Cl)C,12,6,6280,124.504,(2-chloropropyl)(oxo)phosphane,N,O=PCC(Cl)C,"InChI=1S/C3H6ClOP/c1-3(4)2-6-5/h3H,2H2,1H3",InChIKey=QLPVCSNRQPQGNP-UHFFFAOYSA-N,143.8,Pr,   143.80(BP est)    -49.00(MP est)      ----(BP exp)      ----(MP exp)  O=PCC(Cl)C ,-49,Pred,N
C3H6ClOP,ClC=CPOC,12,6,6282,124.504,(2-chlorovinyl)(methoxy)phosphane,N,ClC=CPOC,"InChI=1S/C3H6ClOP/c1-5-6-3-2-4/h2-3,6H,1H3",InChIKey=KJAQNJHKNLICSX-UHFFFAOYSA-N,108.61,Pr,   108.61(BP est)    -68.88(MP est)      ----(BP exp)      ----(MP exp)  ClC=CPOC ,-68.88,Pred,N
C3H6ClOP,O=P(C)C=CCl,12,6,6283,124.504,(2-chlorovinyl)(methyl)phosphine oxide,N,O=P(C)C=CCl,"InChI=1S/C3H6ClOP/c1-6(5)3-2-4/h2-3,6H,1H3",InChIKey=NZLHDXONDXBHOV-UHFFFAOYSA-N,147.92,Pr,   147.92(BP est)    -51.02(MP est)      ----(BP exp)      ----(MP exp)  O=P(C)C=CCl ,-51.02,Pred,N
C3H6ClOP,O=PCCCCl,12,6,6285,124.504,(3-chloropropyl)(oxo)phosphane,N,O=PCCCCl,InChI=1S/C3H6ClOP/c4-2-1-3-6-5/h1-3H2,InChIKey=CALUTRWHSGZVJY-UHFFFAOYSA-N,168.83,Pr,   168.83(BP est)    -34.19(MP est)      ----(BP exp)      ----(MP exp)  O=PCCCCl ,-34.19,Pred,N
C3H6ClOP,O=P(CCl)C=C,12,6,6287,124.504,(chloromethyl)(vinyl)phosphine oxide,N,O=P(CCl)C=C,"InChI=1S/C3H6ClOP/c1-2-6(5)3-4/h2,6H,1,3H2",InChIKey=FABHMXAHBRFJBR-UHFFFAOYSA-N,165.26,Pr,   165.26(BP est)    -44.30(MP est)      ----(BP exp)      ----(MP exp)  O=P(CCl)C=C ,-44.3,Pred,N
C3H6ClOP,O=P1(CCl)CC1,12,6,6288,124.504,1-(chloromethyl)phosphirane 1-oxide,N,O=P1(CCl)CC1,InChI=1S/C3H6ClOP/c4-3-6(5)1-2-6/h1-3H2,InChIKey=JLBZKMFJWXWFAX-UHFFFAOYSA-N,172.72,Pr,   172.72(BP est)    -36.58(MP est)      ----(BP exp)      ----(MP exp)  O=P1(CCl)CC1 ,-36.58,Pred,N
C3H6ClOP,ClC1CP1OC,12,6,6289,124.504,2-chloro-1-methoxyphosphirane,N,ClC1CP1OC,"InChI=1S/C3H6ClOP/c1-5-6-2-3(6)4/h3H,2H2,1H3",InChIKey=UNUJGALTMDLFFD-UHFFFAOYSA-N,119.03,Pr,   119.03(BP est)    -53.26(MP est)      ----(BP exp)      ----(MP exp)  ClC1CP1OC ,-53.26,Pred,N
C3H6ClOP,O=P1(C)C(Cl)C1,12,6,6290,124.504,2-chloro-1-methylphosphirane 1-oxide,N,O=P1(C)C(Cl)C1,"InChI=1S/C3H6ClOP/c1-6(5)2-3(6)4/h3H,2H2,1H3",InChIKey=WVNUXKMCJVENKH-UHFFFAOYSA-N,154.76,Pr,   154.76(BP est)    -43.94(MP est)      ----(BP exp)      ----(MP exp)  O=P1(C)C(Cl)C1 ,-43.94,Pred,N
C3H6ClOP,O=P1C(Cl)CC1,12,6,6292,124.504,2-chlorophosphetane 1-oxide,N,O=P1C(Cl)CC1,"InChI=1S/C3H6ClOP/c4-3-1-2-6(3)5/h3,6H,1-2H2",InChIKey=FTLFWVVRWIVQSE-UHFFFAOYSA-N,158.77,Pr,   158.77(BP est)    -36.34(MP est)      ----(BP exp)      ----(MP exp)  O=P1C(Cl)CC1 ,-36.34,Pred,N
C3H6ClOP,O=P1CC(Cl)C1,12,6,6294,124.504,3-chlorophosphetane 1-oxide,N,O=P1CC(Cl)C1,"InChI=1S/C3H6ClOP/c4-3-1-6(5)2-3/h3,6H,1-2H2",InChIKey=FSZMHIMPLWYIGM-UHFFFAOYSA-N,158.77,Pr,   158.77(BP est)    -36.34(MP est)      ----(BP exp)      ----(MP exp)  O=P1CC(Cl)C1 ,-36.34,Pred,N
C4H10ClP,CC(CCl)(P)C,16,6,6295,124.548,(1-chloro-2-methylpropan-2-yl)phosphane,N,CC(CCl)(P)C,"InChI=1S/C4H10ClP/c1-4(2,6)3-5/h3,6H2,1-2H3",InChIKey=WXBJFVZRBMNQKV-UHFFFAOYSA-N,124.79,Pr,   124.79(BP est)    -57.70(MP est)      ----(BP exp)      ----(MP exp)  CC(CCl)(P)C ,-57.7,Pred,N
C4H10ClP,CC(C(P)Cl)C,16,6,6296,124.548,(1-chloro-2-methylpropyl)phosphane,N,CC(C(P)Cl)C,"InChI=1S/C4H10ClP/c1-3(2)4(5)6/h3-4H,6H2,1-2H3",InChIKey=PZIUAXXPHPOWTI-UHFFFAOYSA-N,107.18,Pr,   107.18(BP est)    -79.06(MP est)      ----(BP exp)      ----(MP exp)  CC(C(P)Cl)C ,-79.06,Pred,N
C4H10ClP,ClCC(P)CC,16,6,6297,124.548,(1-chlorobutan-2-yl)phosphane,N,ClCC(P)CC,"InChI=1S/C4H10ClP/c1-2-4(6)3-5/h4H,2-3,6H2,1H3",InChIKey=JQKXQMFDPPDLCL-UHFFFAOYSA-N,133.87,Pr,   133.87(BP est)    -63.76(MP est)      ----(BP exp)      ----(MP exp)  ClCC(P)CC ,-63.76,Pred,N
C4H10ClP,ClC(P)CCC,16,6,6298,124.548,(1-chlorobutyl)phosphane,N,ClC(P)CCC,"InChI=1S/C4H10ClP/c1-2-3-4(5)6/h4H,2-3,6H2,1H3",InChIKey=IIMSYZYJMSAZCU-UHFFFAOYSA-N,121.33,Pr,   121.33(BP est)    -67.42(MP est)      ----(BP exp)      ----(MP exp)  ClC(P)CCC ,-67.42,Pred,N
C4H10ClP,CCPC(C)Cl,16,6,6299,124.548,(1-chloroethyl)(ethyl)phosphane,N,CCPC(C)Cl,"InChI=1S/C4H10ClP/c1-3-6-4(2)5/h4,6H,3H2,1-2H3",InChIKey=QQWDWDWGJCPOIV-UHFFFAOYSA-N,101.06,Pr,   101.06(BP est)    -81.53(MP est)      ----(BP exp)      ----(MP exp)  CCPC(C)Cl ,-81.53,Pred,N
C4H10ClP,CP(C(C)Cl)C,16,6,6300,124.548,(1-chloroethyl)dimethylphosphane,N,CP(C(C)Cl)C,"InChI=1S/C4H10ClP/c1-4(5)6(2)3/h4H,1-3H3",InChIKey=QQNNAPXJVSXCMY-UHFFFAOYSA-N,102.02,Pr,   102.02(BP est)    -81.93(MP est)      ----(BP exp)      ----(MP exp)  CP(C(C)Cl)C ,-81.93,Pred,N
C4H10ClP,CPC(CCl)C,16,6,6301,124.548,(1-chloropropan-2-yl)(methyl)phosphane,N,CPC(CCl)C,"InChI=1S/C4H10ClP/c1-4(3-5)6-2/h4,6H,3H2,1-2H3",InChIKey=HFALBRJDIOLNPW-UHFFFAOYSA-N,114.02,Pr,   114.02(BP est)    -77.74(MP est)      ----(BP exp)      ----(MP exp)  CPC(CCl)C ,-77.74,Pred,N
C4H10ClP,CPC(CC)Cl,16,6,6302,124.548,(1-chloropropyl)(methyl)phosphane,N,CPC(CC)Cl,"InChI=1S/C4H10ClP/c1-3-4(5)6-2/h4,6H,3H2,1-2H3",InChIKey=SWYOCARRLPOFAG-UHFFFAOYSA-N,101.06,Pr,   101.06(BP est)    -81.53(MP est)      ----(BP exp)      ----(MP exp)  CPC(CC)Cl ,-81.53,Pred,N
C4H10ClP,ClC(C)(CP)C,16,6,6303,124.548,(2-chloro-2-methylpropyl)phosphane,N,ClC(C)(CP)C,"InChI=1S/C4H10ClP/c1-4(2,5)3-6/h3,6H2,1-2H3",InChIKey=OKNVYZCCHGEPRU-UHFFFAOYSA-N,99.1,Pr,    99.10(BP est)    -65.20(MP est)      ----(BP exp)      ----(MP exp)  ClC(C)(CP)C ,-65.2,Pred,N
C4H10ClP,ClC(CC)(P)C,16,6,6304,124.548,(2-chlorobutan-2-yl)phosphane,N,ClC(CC)(P)C,"InChI=1S/C4H10ClP/c1-3-4(2,5)6/h3,6H2,1-2H3",InChIKey=OTJVPNSKKVPSNK-UHFFFAOYSA-N,99.1,Pr,    99.10(BP est)    -65.20(MP est)      ----(BP exp)      ----(MP exp)  ClC(CC)(P)C ,-65.2,Pred,N
C4H10ClP,ClC(CC)CP,16,6,6305,124.548,(2-chlorobutyl)phosphane,N,ClC(CC)CP,"InChI=1S/C4H10ClP/c1-2-4(5)3-6/h4H,2-3,6H2,1H3",InChIKey=RRZKWDFHVSYQEW-UHFFFAOYSA-N,121.33,Pr,   121.33(BP est)    -67.42(MP est)      ----(BP exp)      ----(MP exp)  ClC(CC)CP ,-67.42,Pred,N
C4H10ClP,CCPCCCl,16,6,6306,124.548,(2-chloroethyl)(ethyl)phosphane,N,CCPCCCl,"InChI=1S/C4H10ClP/c1-2-6-4-3-5/h6H,2-4H2,1H3",InChIKey=OXHHHQNXYWJVGA-UHFFFAOYSA-N,128.01,Pr,   128.01(BP est)    -66.16(MP est)      ----(BP exp)      ----(MP exp)  CCPCCCl ,-66.16,Pred,N
C4H10ClP,CP(CCCl)C,16,6,6307,124.548,(2-chloroethyl)dimethylphosphane,N,CP(CCCl)C,"InChI=1S/C4H10ClP/c1-6(2)4-3-5/h3-4H2,1-2H3",InChIKey=CFBBSPMKPFYJKY-UHFFFAOYSA-N,128.93,Pr,   128.93(BP est)    -66.57(MP est)      ----(BP exp)      ----(MP exp)  CP(CCCl)C ,-66.57,Pred,N
C4H10ClP,CPC(C)(C)Cl,16,6,6308,124.548,(2-chloropropan-2-yl)(methyl)phosphane,N,CPC(C)(C)Cl,"InChI=1S/C4H10ClP/c1-4(2,5)6-3/h6H,1-3H3",InChIKey=PSKDNTWASMWLTK-UHFFFAOYSA-N,78.1,Pr,    78.10(BP est)    -79.52(MP est)      ----(BP exp)      ----(MP exp)  CPC(C)(C)Cl ,-79.52,Pred,N
C4H10ClP,CPCC(C)Cl,16,6,6309,124.548,(2-chloropropyl)(methyl)phosphane,N,CPCC(C)Cl,"InChI=1S/C4H10ClP/c1-4(5)3-6-2/h4,6H,3H2,1-2H3",InChIKey=GFRTXJPSLQWZFM-UHFFFAOYSA-N,101.06,Pr,   101.06(BP est)    -81.53(MP est)      ----(BP exp)      ----(MP exp)  CPCC(C)Cl ,-81.53,Pred,N
C4H10ClP,CC(CP)CCl,16,6,6310,124.548,(3-chloro-2-methylpropyl)phosphane,N,CC(CP)CCl,"InChI=1S/C4H10ClP/c1-4(2-5)3-6/h4H,2-3,6H2,1H3",InChIKey=VPFITJPAEHHIKX-UHFFFAOYSA-N,133.87,Pr,   133.87(BP est)    -63.76(MP est)      ----(BP exp)      ----(MP exp)  CC(CP)CCl ,-63.76,Pred,N
C4H10ClP,CC(P)C(C)Cl,16,6,6311,124.548,(3-chlorobutan-2-yl)phosphane,N,CC(P)C(C)Cl,"InChI=1S/C4H10ClP/c1-3(5)4(2)6/h3-4H,6H2,1-2H3",InChIKey=RISKIMFPBLUBBI-UHFFFAOYSA-N,107.18,Pr,   107.18(BP est)    -79.06(MP est)      ----(BP exp)      ----(MP exp)  CC(P)C(C)Cl ,-79.06,Pred,N
C4H10ClP,ClC(C)CCP,16,6,6312,124.548,(3-chlorobutyl)phosphane,N,ClC(C)CCP,"InChI=1S/C4H10ClP/c1-4(5)2-3-6/h4H,2-3,6H2,1H3",InChIKey=MCSXBIUEJBUVAM-UHFFFAOYSA-N,121.33,Pr,   121.33(BP est)    -67.42(MP est)      ----(BP exp)      ----(MP exp)  ClC(C)CCP ,-67.42,Pred,N
C4H10ClP,CPCCCCl,16,6,6313,124.548,(3-chloropropyl)(methyl)phosphane,N,CPCCCCl,"InChI=1S/C4H10ClP/c1-6-4-2-3-5/h6H,2-4H2,1H3",InChIKey=GCPTZTSQQCRBCN-UHFFFAOYSA-N,128.01,Pr,   128.01(BP est)    -66.16(MP est)      ----(BP exp)      ----(MP exp)  CPCCCCl ,-66.16,Pred,N
C4H10ClP,CC(P)CCCl,16,6,6314,124.548,(4-chlorobutan-2-yl)phosphane,N,CC(P)CCCl,"InChI=1S/C4H10ClP/c1-4(6)2-3-5/h4H,2-3,6H2,1H3",InChIKey=RGKUNSXQWHDNCU-UHFFFAOYSA-N,133.87,Pr,   133.87(BP est)    -63.76(MP est)      ----(BP exp)      ----(MP exp)  CC(P)CCCl ,-63.76,Pred,N
C4H10ClP,ClCCCCP,16,6,6315,124.548,(4-chlorobutyl)phosphane,N,ClCCCCP,"InChI=1S/C4H10ClP/c5-3-1-2-4-6/h1-4,6H2",InChIKey=OPPCGXDVOYIJQR-UHFFFAOYSA-N,147.4,Pr,   147.40(BP est)    -52.31(MP est)      ----(BP exp)      ----(MP exp)  ClCCCCP ,-52.31,Pred,N
C4H10ClP,CP(CC)CCl,16,6,6316,124.548,(chloromethyl)(ethyl)(methyl)phosphane,N,CP(CC)CCl,"InChI=1S/C4H10ClP/c1-3-6(2)4-5/h3-4H2,1-2H3",InChIKey=PWWIWJYFRUMAKO-UHFFFAOYSA-N,128.93,Pr,   128.93(BP est)    -66.57(MP est)      ----(BP exp)      ----(MP exp)  CP(CC)CCl ,-66.57,Pred,N
C4H10ClP,ClCPC(C)C,16,6,6317,124.548,(chloromethyl)(isopropyl)phosphane,N,ClCPC(C)C,"InChI=1S/C4H10ClP/c1-4(2)6-3-5/h4,6H,3H2,1-2H3",InChIKey=YZSIGSJHUXAKPC-UHFFFAOYSA-N,114.02,Pr,   114.02(BP est)    -77.74(MP est)      ----(BP exp)      ----(MP exp)  ClCPC(C)C ,-77.74,Pred,N
C4H10ClP,ClCPCCC,16,6,6318,124.548,(chloromethyl)(propyl)phosphane,N,ClCPCCC,"InChI=1S/C4H10ClP/c1-2-3-6-4-5/h6H,2-4H2,1H3",InChIKey=MMWZJRNEXJXEBE-UHFFFAOYSA-N,128.01,Pr,   128.01(BP est)    -66.16(MP est)      ----(BP exp)      ----(MP exp)  ClCPCCC ,-66.16,Pred,N
C2H8NOPS,O=P(SC)(N)C,14,6,6393,125.126,S-methyl P-methylphosphonamidothioate,N,O=P(SC)(N)C,"InChI=1S/C2H8NOPS/c1-5(3,4)6-2/h1-2H3,(H2,3,4)",InChIKey=XAIODSBPGRTVTN-UHFFFAOYSA-N,202.8,Pr,   202.80(BP est)     -2.41(MP est)      ----(BP exp)      ----(MP exp)  O=P(SC)(N)C ,-2.41,Pred,N
C2H7O2PS,S=P(O)(O)CC,13,6,6414,126.11,"ethylphosphonothioic O,O-acid",N,S=P(O)(O)CC,"InChI=1S/C2H7O2PS/c1-2-5(3,4)6/h2H2,1H3,(H2,3,4,6)",InChIKey=HGELWZQRZUOEOJ-UHFFFAOYSA-N,260.54,Pr,   260.54(BP est)    -43.56(MP est)      ----(BP exp)      ----(MP exp)  S=P(O)(O)CC ,-43.56,Pred,N
C2H7O2PS,S=P(OC)OC,13,6,6415,126.11,"O,O-dimethyl phosphonothioate",N,S=P(OC)OC,"InChI=1S/C2H7O2PS/c1-3-5(6)4-2/h5H,1-2H3",InChIKey=BHVWDFJQEHZKIY-UHFFFAOYSA-N,124.66,Pr,   124.66(BP est)   -113.64(MP est)      ----(BP exp)      ----(MP exp)  S=P(OC)OC ,-113.64,Pred,N