Formula,SMILES,Tot_atoms,Tot_nH_atoms,Dataset_no,Molecular_weight,IUPAC_chemname,Metalloid,EPISUITE,InChI_Code,InChI_Key,Boiling_Point,BP_basis,EPIsuite_output,MP,Basis,Life
C3H6ClOP,ClC(C=C)[P]([H])([H])=O,12,6,14996,124.504,(1-chloroallyl)phosphine oxide,N,C=CC(Cl)P=O,"InChI=1S/C3H6ClOP/c1-2-3(4)6-5/h2-3H,1,6H2",InChIKey=LJENHJSGBWNLOD-UHFFFAOYSA-N,142.13,Pr,   142.13(BP est)    -50.37(MP est)      ----(BP exp)      ----(MP exp)  C=CC(Cl)P=O ,-50.37,Pred,N
C3H6ClOP,ClC=CC[P]([H])([H])=O,12,6,14998,124.504,(3-chloroallyl)phosphine oxide,N,O=PCC=CCl,"InChI=1S/C3H6ClOP/c4-2-1-3-6-5/h1-2H,3,6H2",InChIKey=NDFIGLZKWDZTJK-UHFFFAOYSA-N,149.96,Pr,   149.96(BP est)    -42.24(MP est)      ----(BP exp)      ----(MP exp)  O=PCC=CCl ,-42.24,Pred,N
C3H8ClOP,ClC(CC)[P]([H])([H])=O,14,6,15000,126.52,(1-chloropropyl)phosphine oxide,N,CCC(Cl)P=O,"InChI=1S/C3H8ClOP/c1-2-3(4)6-5/h3H,2,6H2,1H3",InChIKey=NWUUOVHPRAFWDW-UHFFFAOYSA-N,143.8,Pr,   143.80(BP est)    -49.00(MP est)      ----(BP exp)      ----(MP exp)  CCC(Cl)P=O ,-49,Pred,N
C3H8ClOP,ClC(C)C[P]([H])([H])=O,14,6,15001,126.52,(2-chloropropyl)phosphine oxide,N,CC(Cl)CP=O,"InChI=1S/C3H8ClOP/c1-3(4)2-6-5/h3H,2,6H2,1H3",InChIKey=FDESKYTYBMXIRT-UHFFFAOYSA-N,143.8,Pr,   143.80(BP est)    -49.00(MP est)      ----(BP exp)      ----(MP exp)  CC(Cl)CP=O ,-49,Pred,N
C3H8ClOP,ClCCC[P]([H])([H])=O,14,6,15002,126.52,(3-chloropropyl)phosphine oxide,N,O=PCCCCl,"InChI=1S/C3H8ClOP/c4-2-1-3-6-5/h1-3,6H2",InChIKey=HJJRTJIWDWXLJV-UHFFFAOYSA-N,168.83,Pr,   168.83(BP est)    -34.19(MP est)      ----(BP exp)      ----(MP exp)  O=PCCCCl ,-34.19,Pred,N
C2H3ClFOP,ClC(=CF)[P]([H])([H])=O,9,6,15003,128.467,(1-chloro-2-fluorovinyl)phosphine oxide,N,O=PC(Cl)=CF,"InChI=1S/C2H3ClFOP/c3-2(1-4)6-5/h1H,6H2",InChIKey=SJTZDJNDEBCBFC-UHFFFAOYSA-N,123.41,Pr,   123.41(BP est)    -62.31(MP est)      ----(BP exp)      ----(MP exp)  O=PC(Cl)=CF ,-62.31,Pred,N
C2H3ClFOP,FC(=CCl)[P]([H])([H])=O,9,6,15004,128.467,(2-chloro-1-fluorovinyl)phosphine oxide,N,O=PC(F)=CCl,"InChI=1S/C2H3ClFOP/c3-1-2(4)6-5/h1H,6H2",InChIKey=TXIKZTLITUVNPA-UHFFFAOYSA-N,123.41,Pr,   123.41(BP est)    -62.31(MP est)      ----(BP exp)      ----(MP exp)  O=PC(F)=CCl ,-62.31,Pred,N
C2H3ClFOP,ClC(F)=C[P]([H])([H])=O,9,6,15005,128.467,(2-chloro-2-fluorovinyl)phosphine oxide,N,O=PC=C(F)Cl,"InChI=1S/C2H3ClFOP/c3-2(4)1-6-5/h1H,6H2",InChIKey=UDBWDECYSCMWPN-UHFFFAOYSA-N,123.41,Pr,   123.41(BP est)    -62.31(MP est)      ----(BP exp)      ----(MP exp)  O=PC=C(F)Cl ,-62.31,Pred,N
C2H5ClFOP,ClC(C)(F)[P]([H])([H])=O,11,6,15007,130.483,(1-chloro-1-fluoroethyl)phosphine oxide,N,CC(F)(Cl)P=O,"InChI=1S/C2H5ClFOP/c1-2(3,4)6-5/h6H2,1H3",InChIKey=JALWSVZCAYRXAT-UHFFFAOYSA-N,101.14,Pr,   101.14(BP est)    -58.08(MP est)      ----(BP exp)      ----(MP exp)  CC(F)(Cl)P=O ,-58.08,Pred,N
C2H5ClFOP,ClC(CF)[P]([H])([H])=O,11,6,15008,130.483,(1-chloro-2-fluoroethyl)phosphine oxide,N,O=PC(Cl)CF,"InChI=1S/C2H5ClFOP/c3-2(1-4)6-5/h2H,1,6H2",InChIKey=JYLQJMMFJGYXGY-UHFFFAOYSA-N,123.29,Pr,   123.29(BP est)    -60.33(MP est)      ----(BP exp)      ----(MP exp)  O=PC(Cl)CF ,-60.33,Pred,N
C2H5ClFOP,FC(CCl)[P]([H])([H])=O,11,6,15009,130.483,(2-chloro-1-fluoroethyl)phosphine oxide,N,O=PC(F)CCl,"InChI=1S/C2H5ClFOP/c3-1-2(4)6-5/h2H,1,6H2",InChIKey=UTLTUWIVJYUXGI-UHFFFAOYSA-N,135.79,Pr,   135.79(BP est)    -56.68(MP est)      ----(BP exp)      ----(MP exp)  O=PC(F)CCl ,-56.68,Pred,N
C2H5ClFOP,ClC(F)C[P]([H])([H])=O,11,6,15010,130.483,(2-chloro-2-fluoroethyl)phosphine oxide,N,O=PCC(F)Cl,"InChI=1S/C2H5ClFOP/c3-2(4)1-6-5/h2H,1,6H2",InChIKey=QQTBBUQHUFHCJM-UHFFFAOYSA-N,123.29,Pr,   123.29(BP est)    -60.33(MP est)      ----(BP exp)      ----(MP exp)  O=PCC(F)Cl ,-60.33,Pred,N
C2H5Cl2OP,ClC(CCl)[P]([H])([H])=O,11,6,15011,146.935,"(1,2-dichloroethyl)phosphine oxide",N,O=PC(Cl)CCl,"InChI=1S/C2H5Cl2OP/c3-1-2(4)6-5/h2H,1,6H2",InChIKey=KCCKAABAODGJJJ-UHFFFAOYSA-N,179.98,Pr,   179.98(BP est)    -29.11(MP est)      ----(BP exp)      ----(MP exp)  O=PC(Cl)CCl ,-29.11,Pred,N
CH2ClF2OP,ClC(F)(F)[P]([H])([H])=O,8,6,15013,134.447,(chlorodifluoromethyl)phosphine oxide,N,O=PC(F)(F)Cl,"InChI=1S/CH2ClF2OP/c2-1(3,4)6-5/h6H2",InChIKey=JMIIIUIFAWWONX-UHFFFAOYSA-N,79.13,Pr,    79.13(BP est)    -69.85(MP est)      ----(BP exp)      ----(MP exp)  O=PC(F)(F)Cl ,-69.85,Pred,N
C2H3Cl2OP,ClC(=CCl)[P]([H])([H])=O,9,6,15017,144.919,"(1,2-dichlorovinyl)phosphine oxide",N,O=PC(Cl)=CCl,"InChI=1S/C2H3Cl2OP/c3-1-2(4)6-5/h1H,6H2",InChIKey=LWEACXSKLACSMS-UHFFFAOYSA-N,154.94,Pr,   154.94(BP est)    -38.44(MP est)      ----(BP exp)      ----(MP exp)  O=PC(Cl)=CCl ,-38.44,Pred,N
C2H3Cl2OP,ClC(Cl)=C[P]([H])([H])=O,9,6,15018,144.919,"(2,2-dichlorovinyl)phosphine oxide",N,O=PC=C(Cl)Cl,"InChI=1S/C2H3Cl2OP/c3-2(4)1-6-5/h1H,6H2",InChIKey=AKOLSASOPHTMBY-UHFFFAOYSA-N,154.94,Pr,   154.94(BP est)    -38.44(MP est)      ----(BP exp)      ----(MP exp)  O=PC=C(Cl)Cl ,-38.44,Pred,N
C2H5Cl2OP,ClC(C)(Cl)[P]([H])([H])=O,11,6,15019,146.935,"(1,1-dichloroethyl)phosphine oxide",N,CC(Cl)(Cl)P=O,"InChI=1S/C2H5Cl2OP/c1-2(3,4)6-5/h6H2,1H3",InChIKey=DAOZVBNCOAZUFV-UHFFFAOYSA-N,135.88,Pr,   135.88(BP est)    -33.28(MP est)      ----(BP exp)      ----(MP exp)  CC(Cl)(Cl)P=O ,-33.28,Pred,N
C2H5Cl2OP,ClC(Cl)C[P]([H])([H])=O,11,6,15021,146.935,"(2,2-dichloroethyl)phosphine oxide",N,O=PCC(Cl)Cl,"InChI=1S/C2H5Cl2OP/c3-2(4)1-6-5/h2H,1,6H2",InChIKey=UJDDWBGTBKIPEJ-UHFFFAOYSA-N,168.49,Pr,   168.49(BP est)    -32.46(MP est)      ----(BP exp)      ----(MP exp)  O=PCC(Cl)Cl ,-32.46,Pred,N
CH2Cl2FOP,ClC(F)(Cl)[P]([H])([H])=O,8,6,15023,150.898,(dichlorofluoromethyl)phosphine oxide,N,O=PC(F)(Cl)Cl,"InChI=1S/CH2Cl2FOP/c2-1(3,4)6-5/h6H2",InChIKey=GCNJHUXVWSQFPB-UHFFFAOYSA-N,115.09,Pr,   115.09(BP est)    -44.69(MP est)      ----(BP exp)      ----(MP exp)  O=PC(F)(Cl)Cl ,-44.69,Pred,N
C3H4BrOP,BrC(C#C)[P]([H])([H])=O,10,6,15033,166.942,(1-bromoprop-2-yn-1-yl)phosphine oxide,N,C#CC(Br)P=O,"InChI=1S/C3H4BrOP/c1-2-3(4)6-5/h1,3H,6H2",InChIKey=POBZZAKQLDHANQ-UHFFFAOYSA-N,175.42,Pr,   175.42(BP est)     -1.34(MP est)      ----(BP exp)      ----(MP exp)  C#CC(Br)P=O ,-1.34,Pred,N
C3H4BrOP,BrC#CC[P]([H])([H])=O,10,6,15034,166.942,(3-bromoprop-2-yn-1-yl)phosphine oxide,N,O=PCC#CBr,"InChI=1S/C3H4BrOP/c4-2-1-3-6-5/h3,6H2",InChIKey=PIRDEISFUPQCHK-UHFFFAOYSA-N,195.49,Pr,   195.49(BP est)     25.32(MP est)      ----(BP exp)      ----(MP exp)  O=PCC#CBr ,25.32,Pred,N
CH2Cl3OP,ClC(Cl)(Cl)[P]([H])([H])=O,8,6,15035,167.35,(trichloromethyl)phosphine oxide,N,O=PC(Cl)(Cl)Cl,"InChI=1S/CH2Cl3OP/c2-1(3,4)6-5/h6H2",InChIKey=BCLBYOPBMLGPRD-UHFFFAOYSA-N,149.04,Pr,   149.04(BP est)    -20.11(MP est)      ----(BP exp)      ----(MP exp)  O=PC(Cl)(Cl)Cl ,-20.11,Pred,N
C3H6BrOP,BrC(C=C)[P]([H])([H])=O,12,6,15036,168.958,(1-bromoallyl)phosphine oxide,N,C=CC(Br)P=O,"InChI=1S/C3H6BrOP/c1-2-3(4)6-5/h2-3H,1,6H2",InChIKey=MLPIMVSZMBREIG-UHFFFAOYSA-N,166.4,Pr,   166.40(BP est)    -28.34(MP est)      ----(BP exp)      ----(MP exp)  C=CC(Br)P=O ,-28.34,Pred,N
C3H6BrOP,BrC(=C)C[P]([H])([H])=O,12,6,15037,168.958,(2-bromoallyl)phosphine oxide,N,C=C(Br)CP=O,"InChI=1S/C3H6BrOP/c1-3(4)2-6-5/h1-2,6H2",InChIKey=LDRQIEUPYKXHBM-UHFFFAOYSA-N,173.41,Pr,   173.41(BP est)    -25.77(MP est)      ----(BP exp)      ----(MP exp)  C=C(Br)CP=O ,-25.77,Pred,N
C3H6BrOP,BrC=CC[P]([H])([H])=O,12,6,15038,168.958,(3-bromoallyl)phosphine oxide,N,O=PCC=CBr,"InChI=1S/C3H6BrOP/c4-2-1-3-6-5/h1-2H,3,6H2",InChIKey=LAHJLOLBOXRFQT-UHFFFAOYSA-N,187.04,Pr,   187.04(BP est)    -16.48(MP est)      ----(BP exp)      ----(MP exp)  O=PCC=CBr ,-16.48,Pred,N
C3H8BrOP,BrC(C)C[P]([H])([H])=O,14,6,15039,170.974,(2-bromopropyl)phosphine oxide,N,CC(Br)CP=O,"InChI=1S/C3H8BrOP/c1-3(4)2-6-5/h3H,2,6H2,1H3",InChIKey=WZVAYCNIBQVUJT-UHFFFAOYSA-N,168,Pr,   168.00(BP est)    -26.99(MP est)      ----(BP exp)      ----(MP exp)  CC(Br)CP=O ,-26.99,Pred,N
C3H8BrOP,BrCCC[P]([H])([H])=O,14,6,15040,170.974,(3-bromopropyl)phosphine oxide,N,O=PCCCBr,"InChI=1S/C3H8BrOP/c4-2-1-3-6-5/h1-3,6H2",InChIKey=JLEORCZWZABVER-UHFFFAOYSA-N,180.68,Pr,   180.68(BP est)    -15.79(MP est)      ----(BP exp)      ----(MP exp)  O=PCCCBr ,-15.79,Pred,N
C2H3BrFOP,BrC(=CF)[P]([H])([H])=O,9,6,15041,172.921,(1-bromo-2-fluorovinyl)phosphine oxide,N,O=PC(Br)=CF,"InChI=1S/C2H3BrFOP/c3-2(1-4)6-5/h1H,6H2",InChIKey=LVJLUGZKIAJVSH-UHFFFAOYSA-N,162.34,Pr,   162.34(BP est)    -36.01(MP est)      ----(BP exp)      ----(MP exp)  O=PC(Br)=CF ,-36.01,Pred,N
C2H3BrFOP,FC(=CBr)[P]([H])([H])=O,9,6,15042,172.921,(2-bromo-1-fluorovinyl)phosphine oxide,N,O=PC(F)=CBr,"InChI=1S/C2H3BrFOP/c3-1-2(4)6-5/h1H,6H2",InChIKey=ZPRJHAUEBCDSDJ-UHFFFAOYSA-N,162.34,Pr,   162.34(BP est)    -36.01(MP est)      ----(BP exp)      ----(MP exp)  O=PC(F)=CBr ,-36.01,Pred,N
C2H3BrFOP,BrC(F)=C[P]([H])([H])=O,9,6,15043,172.921,(2-bromo-2-fluorovinyl)phosphine oxide,N,O=PC=C(F)Br,"InChI=1S/C2H3BrFOP/c3-2(4)1-6-5/h1H,6H2",InChIKey=OBMJROJROPGYBS-UHFFFAOYSA-N,162.34,Pr,   162.34(BP est)    -36.01(MP est)      ----(BP exp)      ----(MP exp)  O=PC=C(F)Br ,-36.01,Pred,N
C2H5BrFOP,BrC(C)(F)[P]([H])([H])=O,11,6,15044,174.937,(1-bromo-1-fluoroethyl)phosphine oxide,N,CC(F)(Br)P=O,"InChI=1S/C2H5BrFOP/c1-2(3,4)6-5/h6H2,1H3",InChIKey=LAXXSELEYVJQBF-UHFFFAOYSA-N,139.56,Pr,   139.56(BP est)    -31.93(MP est)      ----(BP exp)      ----(MP exp)  CC(F)(Br)P=O ,-31.93,Pred,N
C2H5BrFOP,BrC(CF)[P]([H])([H])=O,11,6,15045,174.937,(1-bromo-2-fluoroethyl)phosphine oxide,N,O=PC(Br)CF,"InChI=1S/C2H5BrFOP/c3-2(1-4)6-5/h2H,1,6H2",InChIKey=XDHQODGYWYNTCR-UHFFFAOYSA-N,148.4,Pr,   148.40(BP est)    -38.05(MP est)      ----(BP exp)      ----(MP exp)  O=PC(Br)CF ,-38.05,Pred,N
C2H5BrFOP,FC(CBr)[P]([H])([H])=O,11,6,15046,174.937,(2-bromo-1-fluoroethyl)phosphine oxide,N,O=PC(F)CBr,"InChI=1S/C2H5BrFOP/c3-1-2(4)6-5/h2H,1,6H2",InChIKey=ZUDFTVNBJFHWFJ-UHFFFAOYSA-N,148.4,Pr,   148.40(BP est)    -38.05(MP est)      ----(BP exp)      ----(MP exp)  O=PC(F)CBr ,-38.05,Pred,N
C2H5BrFOP,BrC(F)C[P]([H])([H])=O,11,6,15047,174.937,(2-bromo-2-fluoroethyl)phosphine oxide,N,O=PCC(F)Br,"InChI=1S/C2H5BrFOP/c3-2(4)1-6-5/h2H,1,6H2",InChIKey=AQPUTBWUXSWVTE-UHFFFAOYSA-N,148.4,Pr,   148.40(BP est)    -38.05(MP est)      ----(BP exp)      ----(MP exp)  O=PCC(F)Br ,-38.05,Pred,N
CH2BrF2OP,BrC(F)(F)[P]([H])([H])=O,8,6,15050,178.901,(bromodifluoromethyl)phosphine oxide,N,O=PC(F)(F)Br,"InChI=1S/CH2BrF2OP/c2-1(3,4)6-5/h6H2",InChIKey=RQJAAICWERQBKX-UHFFFAOYSA-N,118.9,Pr,   118.90(BP est)    -43.30(MP est)      ----(BP exp)      ----(MP exp)  O=PC(F)(F)Br ,-43.3,Pred,N
C2H3BrClOP,BrC(=CCl)[P]([H])([H])=O,9,6,15051,189.373,(1-bromo-2-chlorovinyl)phosphine oxide,N,O=PC(Br)=CCl,"InChI=1S/C2H3BrClOP/c3-2(1-4)6-5/h1H,6H2",InChIKey=CLXISLJRNGIIJY-UHFFFAOYSA-N,191.66,Pr,   191.66(BP est)    -12.78(MP est)      ----(BP exp)      ----(MP exp)  O=PC(Br)=CCl ,-12.78,Pred,N
C2H3BrClOP,ClC(=CBr)[P]([H])([H])=O,9,6,15052,189.373,(2-bromo-1-chlorovinyl)phosphine oxide,N,O=PC(Cl)=CBr,"InChI=1S/C2H3BrClOP/c3-1-2(4)6-5/h1H,6H2",InChIKey=DSBOOBLXUHNITI-UHFFFAOYSA-N,191.66,Pr,   191.66(BP est)    -12.78(MP est)      ----(BP exp)      ----(MP exp)  O=PC(Cl)=CBr ,-12.78,Pred,N
C2H3BrClOP,BrC(Cl)=C[P]([H])([H])=O,9,6,15053,189.373,(2-bromo-2-chlorovinyl)phosphine oxide,N,O=PC=C(Cl)Br,"InChI=1S/C2H3BrClOP/c3-2(4)1-6-5/h1H,6H2",InChIKey=ZNVXFXVLJOBYOP-UHFFFAOYSA-N,191.66,Pr,   191.66(BP est)    -12.78(MP est)      ----(BP exp)      ----(MP exp)  O=PC=C(Cl)Br ,-12.78,Pred,N
C2H5BrClOP,BrC(C)(Cl)[P]([H])([H])=O,11,6,15056,191.389,(1-bromo-1-chloroethyl)phosphine oxide,N,CC(Cl)(Br)P=O,"InChI=1S/C2H5BrClOP/c1-2(3,4)6-5/h6H2,1H3",InChIKey=AGIIZAMOIVQFIN-UHFFFAOYSA-N,172.07,Pr,   172.07(BP est)     -7.77(MP est)      ----(BP exp)      ----(MP exp)  CC(Cl)(Br)P=O ,-7.77,Pred,N
C2H5BrClOP,BrC(CCl)[P]([H])([H])=O,11,6,15057,191.389,(1-bromo-2-chloroethyl)phosphine oxide,N,O=PC(Br)CCl,"InChI=1S/C2H5BrClOP/c3-2(1-4)6-5/h2H,1,6H2",InChIKey=KLAYYGGHVLPODI-UHFFFAOYSA-N,202.5,Pr,   202.50(BP est)     -7.60(MP est)      ----(BP exp)      ----(MP exp)  O=PC(Br)CCl ,-7.6,Pred,N
C2H5BrClOP,ClC(CBr)[P]([H])([H])=O,11,6,15058,191.389,(2-bromo-1-chloroethyl)phosphine oxide,N,O=PC(Cl)CBr,"InChI=1S/C2H5BrClOP/c3-1-2(4)6-5/h2H,1,6H2",InChIKey=OVFCOIAAYHAKPI-UHFFFAOYSA-N,191.56,Pr,   191.56(BP est)    -10.79(MP est)      ----(BP exp)      ----(MP exp)  O=PC(Cl)CBr ,-10.79,Pred,N
C2H5BrClOP,BrC(Cl)C[P]([H])([H])=O,11,6,15059,191.389,(2-bromo-2-chloroethyl)phosphine oxide,N,O=PCC(Cl)Br,"InChI=1S/C2H5BrClOP/c3-2(4)1-6-5/h2H,1,6H2",InChIKey=HKGSEZXETUGRBD-UHFFFAOYSA-N,191.56,Pr,   191.56(BP est)    -10.79(MP est)      ----(BP exp)      ----(MP exp)  O=PCC(Cl)Br ,-10.79,Pred,N
CH2BrClFOP,BrC(F)(Cl)[P]([H])([H])=O,8,6,15060,195.352,(bromochlorofluoromethyl)phosphine oxide,N,O=PC(F)(Cl)Br,"InChI=1S/CH2BrClFOP/c2-1(3,4)6-5/h6H2",InChIKey=AMCAPIXJQYRXMU-UHFFFAOYSA-N,152.63,Pr,   152.63(BP est)    -18.78(MP est)      ----(BP exp)      ----(MP exp)  O=PC(F)(Cl)Br ,-18.78,Pred,N
CH2BrCl2OP,BrC(Cl)(Cl)[P]([H])([H])=O,8,6,15067,211.804,(bromodichloromethyl)phosphine oxide,N,O=PC(Cl)(Cl)Br,"InChI=1S/CH2BrCl2OP/c2-1(3,4)6-5/h6H2",InChIKey=RHLNONSOXVXCPX-UHFFFAOYSA-N,184.36,Pr,   184.36(BP est)      5.14(MP est)      ----(BP exp)      ----(MP exp)  O=PC(Cl)(Cl)Br ,5.14,Pred,N
C3H4IOP,IC(C#C)[P]([H])([H])=O,10,6,15068,213.942,(1-iodoprop-2-yn-1-yl)phosphine oxide,N,C#CC(I)P=O,"InChI=1S/C3H4IOP/c1-2-3(4)6-5/h1,3H,6H2",InChIKey=IYRLXMXKXIVIPQ-UHFFFAOYSA-N,205.14,Pr,   205.14(BP est)      6.46(MP est)      ----(BP exp)      ----(MP exp)  C#CC(I)P=O ,6.46,Pred,N
C3H4IOP,IC#CC[P]([H])([H])=O,10,6,15069,213.942,(3-iodoprop-2-yn-1-yl)phosphine oxide,N,O=PCC#CI,"InChI=1S/C3H4IOP/c4-2-1-3-6-5/h3,6H2",InChIKey=NNDSQIXUAITLFZ-UHFFFAOYSA-N,223.91,Pr,   223.91(BP est)     36.39(MP est)      ----(BP exp)      ----(MP exp)  O=PCC#CI ,36.39,Pred,N
C3H6IOP,IC(C=C)[P]([H])([H])=O,12,6,15070,215.958,(1-iodoallyl)phosphine oxide,N,C=CC(I)P=O,"InChI=1S/C3H6IOP/c1-2-3(4)6-5/h2-3H,1,6H2",InChIKey=UBOFBUZZWLSOMJ-UHFFFAOYSA-N,196.68,Pr,   196.68(BP est)    -20.37(MP est)      ----(BP exp)      ----(MP exp)  C=CC(I)P=O ,-20.37,Pred,N
C3H6IOP,IC(=C)C[P]([H])([H])=O,12,6,15071,215.958,(2-iodoallyl)phosphine oxide,N,C=C(I)CP=O,"InChI=1S/C3H6IOP/c1-3(4)2-6-5/h1-2,6H2",InChIKey=AAUFCTNVKMFKNZ-UHFFFAOYSA-N,203.25,Pr,   203.25(BP est)    -17.93(MP est)      ----(BP exp)      ----(MP exp)  C=C(I)CP=O ,-17.93,Pred,N
C3H6IOP,IC=CC[P]([H])([H])=O,12,6,15072,215.958,(3-iodoallyl)phosphine oxide,N,O=PCC=CI,"InChI=1S/C3H6IOP/c4-2-1-3-6-5/h1-2H,3,6H2",InChIKey=XGTYDSFCBGFRKL-UHFFFAOYSA-N,216.01,Pr,   216.01(BP est)     -8.89(MP est)      ----(BP exp)      ----(MP exp)  O=PCC=CI ,-8.89,Pred,N
C3H8IOP,IC(CC)[P]([H])([H])=O,14,6,15073,217.974,(1-iodopropyl)phosphine oxide,N,CCC(I)P=O,"InChI=1S/C3H8IOP/c1-2-3(4)6-5/h3H,2,6H2,1H3",InChIKey=CBERYYDLIPPCQA-UHFFFAOYSA-N,198.18,Pr,   198.18(BP est)    -19.05(MP est)      ----(BP exp)      ----(MP exp)  CCC(I)P=O ,-19.05,Pred,N
C3H8IOP,IC(C)C[P]([H])([H])=O,14,6,15074,217.974,(2-iodopropyl)phosphine oxide,N,CC(I)CP=O,"InChI=1S/C3H8IOP/c1-3(4)2-6-5/h3H,2,6H2,1H3",InChIKey=RDECNDPNZRDJRZ-UHFFFAOYSA-N,198.18,Pr,   198.18(BP est)    -19.05(MP est)      ----(BP exp)      ----(MP exp)  CC(I)CP=O ,-19.05,Pred,N
C3H8IOP,ICCC[P]([H])([H])=O,14,6,15075,217.974,(3-iodopropyl)phosphine oxide,N,O=PCCCI,"InChI=1S/C3H8IOP/c4-2-1-3-6-5/h1-3,6H2",InChIKey=UMXRIRAREXZOJK-UHFFFAOYSA-N,210.07,Pr,   210.07(BP est)     -8.08(MP est)      ----(BP exp)      ----(MP exp)  O=PCCCI ,-8.08,Pred,N
C2H3FIOP,FC(=CI)[P]([H])([H])=O,9,6,15076,219.922,(1-fluoro-2-iodovinyl)phosphine oxide,N,O=PC(F)=CI,"InChI=1S/C2H3FIOP/c3-2(1-4)6-5/h1H,6H2",InChIKey=MISUESRJQUEERN-UHFFFAOYSA-N,192.86,Pr,   192.86(BP est)    -27.96(MP est)      ----(BP exp)      ----(MP exp)  O=PC(F)=CI ,-27.96,Pred,N
C2H3FIOP,IC(=CF)[P]([H])([H])=O,9,6,15077,219.922,(2-fluoro-1-iodovinyl)phosphine oxide,N,O=PC(I)=CF,"InChI=1S/C2H3FIOP/c3-1-2(4)6-5/h1H,6H2",InChIKey=UPMMCMIBBIYJTO-UHFFFAOYSA-N,192.86,Pr,   192.86(BP est)    -27.96(MP est)      ----(BP exp)      ----(MP exp)  O=PC(I)=CF ,-27.96,Pred,N
C2H3FIOP,FC(I)=C[P]([H])([H])=O,9,6,15078,219.922,(2-fluoro-2-iodovinyl)phosphine oxide,N,O=PC=C(F)I,"InChI=1S/C2H3FIOP/c3-2(4)1-6-5/h1H,6H2",InChIKey=QGDNIXLOENNEKV-UHFFFAOYSA-N,192.86,Pr,   192.86(BP est)    -27.96(MP est)      ----(BP exp)      ----(MP exp)  O=PC=C(F)I ,-27.96,Pred,N
C2H5FIOP,FC(C)(I)[P]([H])([H])=O,11,6,15080,221.938,(1-fluoro-1-iodoethyl)phosphine oxide,N,CC(F)(I)P=O,"InChI=1S/C2H5FIOP/c1-2(3,4)6-5/h6H2,1H3",InChIKey=QQDMOUFXJIPJOD-UHFFFAOYSA-N,171.45,Pr,   171.45(BP est)    -23.48(MP est)      ----(BP exp)      ----(MP exp)  CC(F)(I)P=O ,-23.48,Pred,N
C2H5FIOP,FC(CI)[P]([H])([H])=O,11,6,15081,221.938,(1-fluoro-2-iodoethyl)phosphine oxide,N,O=PC(F)CI,"InChI=1S/C2H5FIOP/c3-2(1-4)6-5/h2H,1,6H2",InChIKey=ZXQLFDUJQVEVEF-UHFFFAOYSA-N,179.77,Pr,   179.77(BP est)    -29.77(MP est)      ----(BP exp)      ----(MP exp)  O=PC(F)CI ,-29.77,Pred,N
C2H5FIOP,IC(CF)[P]([H])([H])=O,11,6,15082,221.938,(2-fluoro-1-iodoethyl)phosphine oxide,N,O=PC(I)CF,"InChI=1S/C2H5FIOP/c3-1-2(4)6-5/h2H,1,6H2",InChIKey=NPESMOUZGBCPOZ-UHFFFAOYSA-N,179.77,Pr,   179.77(BP est)    -29.77(MP est)      ----(BP exp)      ----(MP exp)  O=PC(I)CF ,-29.77,Pred,N
C2H5FIOP,FC(I)C[P]([H])([H])=O,11,6,15083,221.938,(2-fluoro-2-iodoethyl)phosphine oxide,N,O=PCC(F)I,"InChI=1S/C2H5FIOP/c3-2(4)1-6-5/h2H,1,6H2",InChIKey=DIYQLJUMYQEMON-UHFFFAOYSA-N,179.77,Pr,   179.77(BP est)    -29.77(MP est)      ----(BP exp)      ----(MP exp)  O=PCC(F)I ,-29.77,Pred,N
CH2F2IOP,FC(I)(F)[P]([H])([H])=O,8,6,15085,225.901,(difluoroiodomethyl)phosphine oxide,N,O=PC(F)(F)I,"InChI=1S/CH2F2IOP/c2-1(3,4)6-5/h6H2",InChIKey=MVGJRLGUYYFHQQ-UHFFFAOYSA-N,151.99,Pr,   151.99(BP est)    -34.51(MP est)      ----(BP exp)      ----(MP exp)  O=PC(F)(F)I ,-34.51,Pred,N
C2H3Br2OP,BrC(=CBr)[P]([H])([H])=O,9,6,15086,233.827,"(1,2-dibromovinyl)phosphine oxide",N,O=PC(Br)=CBr,"InChI=1S/C2H3Br2OP/c3-1-2(4)6-5/h1H,6H2",InChIKey=SPGAEYZUCPQVOY-UHFFFAOYSA-N,225.63,Pr,   225.63(BP est)     12.08(MP est)      ----(BP exp)      ----(MP exp)  O=PC(Br)=CBr ,12.08,Pred,N
C2H3Br2OP,BrC(Br)=C[P]([H])([H])=O,9,6,15087,233.827,"(2,2-dibromovinyl)phosphine oxide",N,O=PC=C(Br)Br,"InChI=1S/C2H3Br2OP/c3-2(4)1-6-5/h1H,6H2",InChIKey=URDNSDBWRAYPKQ-UHFFFAOYSA-N,225.63,Pr,   225.63(BP est)     12.08(MP est)      ----(BP exp)      ----(MP exp)  O=PC=C(Br)Br ,12.08,Pred,N
C2H5Br2OP,BrC(C)(Br)[P]([H])([H])=O,11,6,15088,235.843,"(1,1-dibromoethyl)phosphine oxide",N,CC(Br)(Br)P=O,"InChI=1S/C2H5Br2OP/c1-2(3,4)6-5/h6H2,1H3",InChIKey=AYJKWHBCQYHUDN-UHFFFAOYSA-N,205.8,Pr,   205.80(BP est)     17.02(MP est)      ----(BP exp)      ----(MP exp)  CC(Br)(Br)P=O ,17.02,Pred,N
C2H5Br2OP,BrC(CBr)[P]([H])([H])=O,11,6,15089,235.843,"(1,2-dibromoethyl)phosphine oxide",N,O=PC(Br)CBr,"InChI=1S/C2H5Br2OP/c3-1-2(4)6-5/h2H,1,6H2",InChIKey=WVMWSQYTIMYJPU-UHFFFAOYSA-N,213.51,Pr,   213.51(BP est)     10.56(MP est)      ----(BP exp)      ----(MP exp)  O=PC(Br)CBr ,10.56,Pred,N
C2H5Br2OP,BrC(Br)C[P]([H])([H])=O,11,6,15090,235.843,"(2,2-dibromoethyl)phosphine oxide",N,O=PCC(Br)Br,"InChI=1S/C2H5Br2OP/c3-2(4)1-6-5/h2H,1,6H2",InChIKey=CVWUOTQSVBACRD-UHFFFAOYSA-N,213.51,Pr,   213.51(BP est)     10.56(MP est)      ----(BP exp)      ----(MP exp)  O=PCC(Br)Br ,10.56,Pred,N
C2H3ClIOP,ClC([P]([H])([H])=O)=CI,9,6,15091,236.373,(1-chloro-2-iodovinyl)phosphine oxide,N,O=PC(Cl)=CI,"InChI=1S/C2H3ClIOP/c3-2(1-4)6-5/h1H,6H2",InChIKey=VZGQEGIWRCMWAB-UHFFFAOYSA-N,220.34,Pr,   220.34(BP est)     -5.28(MP est)      ----(BP exp)      ----(MP exp)  O=PC(Cl)=CI ,-5.28,Pred,N
C2H3ClIOP,IC([P]([H])([H])=O)=CCl,9,6,15092,236.373,(2-chloro-1-iodovinyl)phosphine oxide,N,O=PC(I)=CCl,"InChI=1S/C2H3ClIOP/c3-1-2(4)6-5/h1H,6H2",InChIKey=CHMOCOARUWRJEK-UHFFFAOYSA-N,220.34,Pr,   220.34(BP est)     -5.28(MP est)      ----(BP exp)      ----(MP exp)  O=PC(I)=CCl ,-5.28,Pred,N
C2H3ClIOP,ClC(I)=C[P]([H])([H])=O,9,6,15093,236.373,(2-chloro-2-iodovinyl)phosphine oxide,N,O=PC=C(Cl)I,"InChI=1S/C2H3ClIOP/c3-2(4)1-6-5/h1H,6H2",InChIKey=DBLBIKDJRQGHKA-UHFFFAOYSA-N,220.34,Pr,   220.34(BP est)     -5.28(MP est)      ----(BP exp)      ----(MP exp)  O=PC=C(Cl)I ,-5.28,Pred,N