Formula,SMILES,Tot_atoms,Tot_nH_atoms,Dataset_no,Molecular_weight,IUPAC_chemname,Metalloid,EPISUITE,InChI_Code,InChI_Key,Boiling_Point,BP_basis,EPIsuite_output,MP,Basis,Life
C3H6BrP,BrC1(P)CC1,11,5,7916,152.959,(1-bromocyclopropyl)phosphane,N,BrC1(P)CC1,"InChI=1S/C3H6BrP/c4-3(5)1-2-3/h1-2,5H2",InChIKey=ZSTSJHMNSVOIAU-UHFFFAOYSA-N,129.51,Pr,   129.51(BP est)    -27.31(MP est)      ----(BP exp)      ----(MP exp)  BrC1(P)CC1 ,-27.31,Pred,N
C3H6BrP,CPC(Br)=C,11,5,7917,152.959,(1-bromovinyl)(methyl)phosphane,N,CPC(Br)=C,"InChI=1S/C3H6BrP/c1-3(4)5-2/h5H,1H2,2H3",InChIKey=UQXIYYBJLGOPCC-UHFFFAOYSA-N,109.74,Pr,   109.74(BP est)    -70.05(MP est)      ----(BP exp)      ----(MP exp)  CPC(Br)=C ,-70.05,Pred,N
C3H6BrP,BrC(CP)=C,11,5,7918,152.959,(2-bromoallyl)phosphane,N,BrC(CP)=C,"InChI=1S/C3H6BrP/c1-3(4)2-5/h1-2,5H2",InChIKey=SUICNRRGDRUFQR-UHFFFAOYSA-N,129.73,Pr,   129.73(BP est)    -56.02(MP est)      ----(BP exp)      ----(MP exp)  BrC(CP)=C ,-56.02,Pred,N
C3H6BrP,BrC1C(P)C1,11,5,7919,152.959,(2-bromocyclopropyl)phosphane,N,BrC1C(P)C1,"InChI=1S/C3H6BrP/c4-2-1-3(2)5/h2-3H,1,5H2",InChIKey=KDHLTAUMQDAZPR-UHFFFAOYSA-N,134.93,Pr,   134.93(BP est)    -39.80(MP est)      ----(BP exp)      ----(MP exp)  BrC1C(P)C1 ,-39.8,Pred,N
C3H6BrP,CPC=CBr,11,5,7920,152.959,(2-bromovinyl)(methyl)phosphane,N,CPC=CBr,"InChI=1S/C3H6BrP/c1-5-3-2-4/h2-3,5H,1H3",InChIKey=ZCMABSMHXKJHQH-UHFFFAOYSA-N,125.06,Pr,   125.06(BP est)    -60.26(MP est)      ----(BP exp)      ----(MP exp)  CPC=CBr ,-60.26,Pred,N
C3H6BrP,PCC=CBr,11,5,7921,152.959,(3-bromoallyl)phosphane,N,PCC=CBr,"InChI=1S/C3H6BrP/c4-2-1-3-5/h1-2H,3,5H2",InChIKey=PMRIKSFGTVRFGA-UHFFFAOYSA-N,144.54,Pr,   144.54(BP est)    -46.38(MP est)      ----(BP exp)      ----(MP exp)  PCC=CBr ,-46.38,Pred,N
C3H6BrP,BrCPC=C,11,5,7922,152.959,(bromomethyl)(vinyl)phosphane,N,BrCPC=C,"InChI=1S/C3H6BrP/c1-2-5-3-4/h2,5H,1,3H2",InChIKey=JRQKREAHROFFDW-UHFFFAOYSA-N,116.17,Pr,   116.17(BP est)    -61.19(MP est)      ----(BP exp)      ----(MP exp)  BrCPC=C ,-61.19,Pred,N
C3H6BrP,BrCP1CC1,11,5,7923,152.959,1-(bromomethyl)phosphirane,N,BrCP1CC1,InChI=1S/C3H6BrP/c4-3-5-1-2-5/h1-3H2,InChIKey=WANAJMVUGZXJEZ-UHFFFAOYSA-N,127.37,Pr,   127.37(BP est)    -44.88(MP est)      ----(BP exp)      ----(MP exp)  BrCP1CC1 ,-44.88,Pred,N
C3H6BrP,CP1C(Br)C1,11,5,7924,152.959,2-bromo-1-methylphosphirane,N,CP1C(Br)C1,"InChI=1S/C3H6BrP/c1-5-2-3(5)4/h3H,2H2,1H3",InChIKey=XEGBPKPOSIGORX-UHFFFAOYSA-N,120.67,Pr,   120.67(BP est)    -48.95(MP est)      ----(BP exp)      ----(MP exp)  CP1C(Br)C1 ,-48.95,Pred,N
C3H6BrP,BrC1CCP1,11,5,7925,152.959,2-bromophosphetane,N,BrC1CCP1,"InChI=1S/C3H6BrP/c4-3-1-2-5-3/h3,5H,1-2H2",InChIKey=FZHMBJUDRREYHT-UHFFFAOYSA-N,121.87,Pr,   121.87(BP est)    -49.68(MP est)      ----(BP exp)      ----(MP exp)  BrC1CCP1 ,-49.68,Pred,N
C3H6BrP,BrC1CPC1,11,5,7926,152.959,3-bromophosphetane,N,BrC1CPC1,"InChI=1S/C3H6BrP/c4-3-1-5-2-3/h3,5H,1-2H2",InChIKey=PIACNVYGMMIOGQ-UHFFFAOYSA-N,121.87,Pr,   121.87(BP est)    -49.68(MP est)      ----(BP exp)      ----(MP exp)  BrC1CPC1 ,-49.68,Pred,N
C2H4BrOP,O=PC(Br)C,9,5,8106,154.931,(1-bromoethyl)(oxo)phosphane,N,O=PC(Br)C,"InChI=1S/C2H4BrOP/c1-2(3)5-4/h2H,1H3",InChIKey=SCMJVFRJJQLDBU-UHFFFAOYSA-N,146.23,Pr,   146.23(BP est)    -38.98(MP est)      ----(BP exp)      ----(MP exp)  O=PC(Br)C ,-38.98,Pred,N
C2H4BrOP,O=PCCBr,9,5,8108,154.931,(2-bromoethyl)(oxo)phosphane,N,O=PCCBr,InChI=1S/C2H4BrOP/c3-1-2-5-4/h1-2H2,InChIKey=YAZVYJULLVTMRR-UHFFFAOYSA-N,159.46,Pr,   159.46(BP est)    -27.62(MP est)      ----(BP exp)      ----(MP exp)  O=PCCBr ,-27.62,Pred,N
C2H4BrOP,O=P1C(Br)C1,9,5,8111,154.931,2-bromophosphirane 1-oxide,N,O=P1C(Br)C1,"InChI=1S/C2H4BrOP/c3-2-1-5(2)4/h2,5H,1H2",InChIKey=ZQEOQZINBARKHN-UHFFFAOYSA-N,159.16,Pr,   159.16(BP est)    -25.16(MP est)      ----(BP exp)      ----(MP exp)  O=P1C(Br)C1 ,-25.16,Pred,N
C3H8BrP,CPC(C)Br,13,5,8158,154.975,(1-bromoethyl)(methyl)phosphane,N,CPC(C)Br,"InChI=1S/C3H8BrP/c1-3(4)5-2/h3,5H,1-2H3",InChIKey=ZFXADDIXEIODOI-UHFFFAOYSA-N,103.68,Pr,   103.68(BP est)    -71.46(MP est)      ----(BP exp)      ----(MP exp)  CPC(C)Br ,-71.46,Pred,N
C3H8BrP,CC(P)CBr,13,5,8159,154.975,(1-bromopropan-2-yl)phosphane,N,CC(P)CBr,"InChI=1S/C3H8BrP/c1-3(5)2-4/h3H,2,5H2,1H3",InChIKey=GGOOAQSLNBMVAD-UHFFFAOYSA-N,123.87,Pr,   123.87(BP est)    -57.38(MP est)      ----(BP exp)      ----(MP exp)  CC(P)CBr ,-57.38,Pred,N
C3H8BrP,BrC(P)CC,13,5,8160,154.975,(1-bromopropyl)phosphane,N,BrC(P)CC,"InChI=1S/C3H8BrP/c1-2-3(4)5/h3H,2,5H2,1H3",InChIKey=LXSGWGSXEBXFCX-UHFFFAOYSA-N,123.87,Pr,   123.87(BP est)    -57.38(MP est)      ----(BP exp)      ----(MP exp)  BrC(P)CC ,-57.38,Pred,N
C3H8BrP,CPCCBr,13,5,8161,154.975,(2-bromoethyl)(methyl)phosphane,N,CPCCBr,"InChI=1S/C3H8BrP/c1-5-3-2-4/h5H,2-3H2,1H3",InChIKey=ASNXTMVJIVXISW-UHFFFAOYSA-N,117.91,Pr,   117.91(BP est)    -59.80(MP est)      ----(BP exp)      ----(MP exp)  CPCCBr ,-59.8,Pred,N
C3H8BrP,BrC(C)(P)C,13,5,8162,154.975,(2-bromopropan-2-yl)phosphane,N,BrC(C)(P)C,"InChI=1S/C3H8BrP/c1-3(2,4)5/h5H2,1-2H3",InChIKey=IQOZAZGROMFPED-UHFFFAOYSA-N,114.64,Pr,   114.64(BP est)    -51.36(MP est)      ----(BP exp)      ----(MP exp)  BrC(C)(P)C ,-51.36,Pred,N
C3H8BrP,BrC(C)CP,13,5,8163,154.975,(2-bromopropyl)phosphane,N,BrC(C)CP,"InChI=1S/C3H8BrP/c1-3(4)2-5/h3H,2,5H2,1H3",InChIKey=WAYQRUZWUBIVNN-UHFFFAOYSA-N,123.87,Pr,   123.87(BP est)    -57.38(MP est)      ----(BP exp)      ----(MP exp)  BrC(C)CP ,-57.38,Pred,N
C3H8BrP,BrCCCP,13,5,8164,154.975,(3-bromopropyl)phosphane,N,BrCCCP,"InChI=1S/C3H8BrP/c4-2-1-3-5/h1-3,5H2",InChIKey=LQFMFEQCLGVNEH-UHFFFAOYSA-N,137.63,Pr,   137.63(BP est)    -45.86(MP est)      ----(BP exp)      ----(MP exp)  BrCCCP ,-45.86,Pred,N
C3H8BrP,BrCPCC,13,5,8165,154.975,(bromomethyl)(ethyl)phosphane,N,BrCPCC,"InChI=1S/C3H8BrP/c1-2-5-3-4/h5H,2-3H2,1H3",InChIKey=CTPKBLMRJGWQGT-UHFFFAOYSA-N,117.91,Pr,   117.91(BP est)    -59.80(MP est)      ----(BP exp)      ----(MP exp)  BrCPCC ,-59.8,Pred,N
C3H8BrP,CP(CBr)C,13,5,8166,154.975,(bromomethyl)dimethylphosphane,N,CP(CBr)C,"InChI=1S/C3H8BrP/c1-5(2)3-4/h3H2,1-2H3",InChIKey=YWJSTPSKKBKOAG-UHFFFAOYSA-N,118.85,Pr,   118.85(BP est)    -60.21(MP est)      ----(BP exp)      ----(MP exp)  CP(CBr)C ,-60.21,Pred,N
C2H3BrFP,PC(Br)=CF,8,5,8258,156.922,(1-bromo-2-fluorovinyl)phosphane,N,PC(Br)=CF,"InChI=1S/C2H3BrFP/c3-2(5)1-4/h1H,5H2",InChIKey=AKSSNIURBIATBC-UHFFFAOYSA-N,117.73,Pr,   117.73(BP est)    -66.53(MP est)      ----(BP exp)      ----(MP exp)  PC(Br)=CF ,-66.53,Pred,N
C2H3BrFP,PC(F)=CBr,8,5,8259,156.922,(2-bromo-1-fluorovinyl)phosphane,N,PC(F)=CBr,"InChI=1S/C2H3BrFP/c3-1-2(4)5/h1H,5H2",InChIKey=IJXIUXLUYACOAF-UHFFFAOYSA-N,117.73,Pr,   117.73(BP est)    -66.53(MP est)      ----(BP exp)      ----(MP exp)  PC(F)=CBr ,-66.53,Pred,N
C2H3BrFP,PC=C(Br)F,8,5,8260,156.922,(2-bromo-2-fluorovinyl)phosphane,N,PC=C(Br)F,"InChI=1S/C2H3BrFP/c3-2(4)1-5/h1H,5H2",InChIKey=MMCUCWUWMUUVNY-UHFFFAOYSA-N,117.73,Pr,   117.73(BP est)    -66.53(MP est)      ----(BP exp)      ----(MP exp)  PC=C(Br)F ,-66.53,Pred,N
C2H3BrFP,BrC1(F)CP1,8,5,8261,156.922,2-bromo-2-fluorophosphirane,N,BrC1(F)CP1,"InChI=1S/C2H3BrFP/c3-2(4)1-5-2/h5H,1H2",InChIKey=AIFRTJZFZZPOGM-UHFFFAOYSA-N,85.54,Pr,    85.54(BP est)    -51.91(MP est)      ----(BP exp)      ----(MP exp)  BrC1(F)CP1 ,-51.91,Pred,N
C2H3BrFP,BrC1C(F)P1,8,5,8262,156.922,2-bromo-3-fluorophosphirane,N,BrC1C(F)P1,"InChI=1S/C2H3BrFP/c3-1-2(4)5-1/h1-2,5H",InChIKey=YMMICZGBNSFQDQ-UHFFFAOYSA-N,91.36,Pr,    91.36(BP est)    -64.28(MP est)      ----(BP exp)      ----(MP exp)  BrC1C(F)P1 ,-64.28,Pred,N
C2H6BrOP,BrCPOC,11,5,8267,156.947,(bromomethyl)(methoxy)phosphane,N,BrCPOC,"InChI=1S/C2H6BrOP/c1-4-5-2-3/h5H,2H2,1H3",InChIKey=CDOPIVQXQKEMRW-UHFFFAOYSA-N,118.82,Pr,   118.82(BP est)    -54.06(MP est)      ----(BP exp)      ----(MP exp)  BrCPOC ,-54.06,Pred,N
C2H6BrOP,O=P(C)CBr,11,5,8268,156.947,(bromomethyl)(methyl)phosphine oxide,N,O=P(C)CBr,"InChI=1S/C2H6BrOP/c1-5(4)2-3/h5H,2H2,1H3",InChIKey=BHWGLBCHZOWERV-UHFFFAOYSA-N,157.45,Pr,   157.45(BP est)    -36.39(MP est)      ----(BP exp)      ----(MP exp)  O=P(C)CBr ,-36.39,Pred,N
CHBrFOP,O=PC(Br)F,6,5,8363,158.894,(bromofluoromethyl)(oxo)phosphane,N,O=PC(Br)F,InChI=1S/CHBrFOP/c2-1(3)5-4/h1H,InChIKey=CHNHHXXZRFBDBK-UHFFFAOYSA-N,125.82,Pr,   125.82(BP est)    -50.28(MP est)      ----(BP exp)      ----(MP exp)  O=PC(Br)F ,-50.28,Pred,N
CH4BrO2P,O=P(CBr)O,9,5,8364,158.919,(bromomethyl)phosphinic acid,N,O=P(CBr)O,"InChI=1S/CH4BrO2P/c2-1-5(3)4/h5H,1H2,(H,3,4)",InChIKey=LLICJCPDMIGECP-UHFFFAOYSA-N,227.7,Pr,   227.70(BP est)      8.89(MP est)      ----(BP exp)      ----(MP exp)  O=P(CBr)O ,8.89,Pred,N
C2H5BrFP,PC(C)(Br)F,10,5,8369,158.938,(1-bromo-1-fluoroethyl)phosphane,N,PC(C)(Br)F,"InChI=1S/C2H5BrFP/c1-2(3,4)5/h5H2,1H3",InChIKey=RVOFGFFOFPNKMI-UHFFFAOYSA-N,93.1,Pr,    93.10(BP est)    -62.99(MP est)      ----(BP exp)      ----(MP exp)  PC(C)(Br)F ,-62.99,Pred,N
C2H5BrFP,PC(Br)CF,10,5,8370,158.938,(1-bromo-2-fluoroethyl)phosphane,N,PC(Br)CF,"InChI=1S/C2H5BrFP/c3-2(5)1-4/h2H,1,5H2",InChIKey=PGAADWKMSUSLOO-UHFFFAOYSA-N,102.65,Pr,   102.65(BP est)    -68.91(MP est)      ----(BP exp)      ----(MP exp)  PC(Br)CF ,-68.91,Pred,N
C2H5BrFP,PC(F)CBr,10,5,8371,158.938,(2-bromo-1-fluoroethyl)phosphane,N,PC(F)CBr,"InChI=1S/C2H5BrFP/c3-1-2(4)5/h2H,1,5H2",InChIKey=MMNARGBRQWEKMV-UHFFFAOYSA-N,102.65,Pr,   102.65(BP est)    -68.91(MP est)      ----(BP exp)      ----(MP exp)  PC(F)CBr ,-68.91,Pred,N
C2H5BrFP,PCC(Br)F,10,5,8372,158.938,(2-bromo-2-fluoroethyl)phosphane,N,PCC(Br)F,"InChI=1S/C2H5BrFP/c3-2(4)1-5/h2H,1,5H2",InChIKey=UBZDHULRYDNPLV-UHFFFAOYSA-N,102.65,Pr,   102.65(BP est)    -68.91(MP est)      ----(BP exp)      ----(MP exp)  PCC(Br)F ,-68.91,Pred,N
C2H5BrFP,CPC(Br)F,10,5,8373,158.938,(bromofluoromethyl)(methyl)phosphane,N,CPC(Br)F,"InChI=1S/C2H5BrFP/c1-5-2(3)4/h2,5H,1H3",InChIKey=CVHQPUFMIVHNIG-UHFFFAOYSA-N,81.76,Pr,    81.76(BP est)    -83.20(MP est)      ----(BP exp)      ----(MP exp)  CPC(Br)F ,-83.2,Pred,N
C2H5BrFP,BrCPCF,10,5,8374,158.938,(bromomethyl)(fluoromethyl)phosphane,N,BrCPCF,"InChI=1S/C2H5BrFP/c3-1-5-2-4/h5H,1-2H2",InChIKey=WKLUHXQMUHMTGU-UHFFFAOYSA-N,96.49,Pr,    96.49(BP est)    -71.40(MP est)      ----(BP exp)      ----(MP exp)  BrCPCF ,-71.4,Pred,N
CH2BrF2P,PC(F)(Br)F,7,5,8450,162.902,(bromodifluoromethyl)phosphane,N,PC(F)(Br)F,"InChI=1S/CH2BrF2P/c2-1(3,4)5/h5H2",InChIKey=XQMFFRLBMKFLQC-UHFFFAOYSA-N,70.82,Pr,    70.82(BP est)    -74.84(MP est)      ----(BP exp)      ----(MP exp)  PC(F)(Br)F ,-74.84,Pred,N
C2H3BrClP,PC(Br)=CCl,8,5,9206,173.374,(1-bromo-2-chlorovinyl)phosphane,N,PC(Br)=CCl,"InChI=1S/C2H3BrClP/c3-2(5)1-4/h1H,5H2",InChIKey=ITOKJCBQUUSSCO-UHFFFAOYSA-N,149.57,Pr,   149.57(BP est)    -42.57(MP est)      ----(BP exp)      ----(MP exp)  PC(Br)=CCl ,-42.57,Pred,N
C2H3BrClP,PC(Cl)=CBr,8,5,9207,173.374,(2-bromo-1-chlorovinyl)phosphane,N,PC(Cl)=CBr,"InChI=1S/C2H3BrClP/c3-1-2(4)5/h1H,5H2",InChIKey=HIZJHWVQJMHFOE-UHFFFAOYSA-N,149.57,Pr,   149.57(BP est)    -42.57(MP est)      ----(BP exp)      ----(MP exp)  PC(Cl)=CBr ,-42.57,Pred,N
C2H3BrClP,PC=C(Br)Cl,8,5,9208,173.374,(2-bromo-2-chlorovinyl)phosphane,N,PC=C(Br)Cl,"InChI=1S/C2H3BrClP/c3-2(4)1-5/h1H,5H2",InChIKey=KKGYACLOXMTRMK-UHFFFAOYSA-N,149.57,Pr,   149.57(BP est)    -42.57(MP est)      ----(BP exp)      ----(MP exp)  PC=C(Br)Cl ,-42.57,Pred,N
C2H3BrClP,BrC1(Cl)CP1,8,5,9209,173.374,2-bromo-2-chlorophosphirane,N,BrC1(Cl)CP1,"InChI=1S/C2H3BrClP/c3-2(4)1-5-2/h5H,1H2",InChIKey=UTTMCCUMTHXRHY-UHFFFAOYSA-N,121.15,Pr,   121.15(BP est)    -26.85(MP est)      ----(BP exp)      ----(MP exp)  BrC1(Cl)CP1 ,-26.85,Pred,N
C2H3BrClP,ClC1C(Br)P1,8,5,9210,173.374,2-bromo-3-chlorophosphirane,N,ClC1C(Br)P1,"InChI=1S/C2H3BrClP/c3-1-2(4)5-1/h1-2,5H",InChIKey=JTVQGXYYZFMDRM-UHFFFAOYSA-N,139.03,Pr,   139.03(BP est)    -35.70(MP est)      ----(BP exp)      ----(MP exp)  ClC1C(Br)P1 ,-35.7,Pred,N
CHBrClOP,O=PC(Br)Cl,6,5,9321,175.346,(bromochloromethyl)(oxo)phosphane,N,O=PC(Br)Cl,InChI=1S/CHBrClOP/c2-1(3)5-4/h1H,InChIKey=FHHVSOGHKSZQSV-UHFFFAOYSA-N,170.82,Pr,   170.82(BP est)    -22.48(MP est)      ----(BP exp)      ----(MP exp)  O=PC(Br)Cl ,-22.48,Pred,N
C2H5BrClP,BrC(C)(P)Cl,10,5,9326,175.39,(1-bromo-1-chloroethyl)phosphane,N,BrC(C)(P)Cl,"InChI=1S/C2H5BrClP/c1-2(3,4)5/h5H2,1H3",InChIKey=HRLBGQJSLZPRRT-UHFFFAOYSA-N,128.29,Pr,   128.29(BP est)    -38.05(MP est)      ----(BP exp)      ----(MP exp)  BrC(C)(P)Cl ,-38.05,Pred,N
C2H5BrClP,PC(Br)CCl,10,5,9327,175.39,(1-bromo-2-chloroethyl)phosphane,N,PC(Br)CCl,"InChI=1S/C2H5BrClP/c3-2(5)1-4/h2H,1,5H2",InChIKey=ALDWNZLLNRZOKC-UHFFFAOYSA-N,161.38,Pr,   161.38(BP est)    -37.10(MP est)      ----(BP exp)      ----(MP exp)  PC(Br)CCl ,-37.1,Pred,N
C2H5BrClP,ClC(P)CBr,10,5,9328,175.39,(2-bromo-1-chloroethyl)phosphane,N,ClC(P)CBr,"InChI=1S/C2H5BrClP/c3-1-2(4)5/h2H,1,5H2",InChIKey=YVLAPHXQSCWYBI-UHFFFAOYSA-N,149.46,Pr,   149.46(BP est)    -40.58(MP est)      ----(BP exp)      ----(MP exp)  ClC(P)CBr ,-40.58,Pred,N
C2H5BrClP,BrC(Cl)CP,10,5,9329,175.39,(2-bromo-2-chloroethyl)phosphane,N,BrC(Cl)CP,"InChI=1S/C2H5BrClP/c3-2(4)1-5/h2H,1,5H2",InChIKey=NZRFEYUUKYSZOP-UHFFFAOYSA-N,149.46,Pr,   149.46(BP est)    -40.58(MP est)      ----(BP exp)      ----(MP exp)  BrC(Cl)CP ,-40.58,Pred,N
C2H5BrClP,CPC(Cl)Br,10,5,9330,175.39,(bromochloromethyl)(methyl)phosphane,N,CPC(Cl)Br,"InChI=1S/C2H5BrClP/c1-5-2(3)4/h2,5H,1H3",InChIKey=ZAZGSPNPSBMPAR-UHFFFAOYSA-N,130.15,Pr,   130.15(BP est)    -54.40(MP est)      ----(BP exp)      ----(MP exp)  CPC(Cl)Br ,-54.4,Pred,N
C2H5BrClP,ClCPCBr,10,5,9331,175.39,(bromomethyl)(chloromethyl)phosphane,N,ClCPCBr,"InChI=1S/C2H5BrClP/c3-1-5-2-4/h5H,1-2H2",InChIKey=BQVAIVIUZOAANA-UHFFFAOYSA-N,155.82,Pr,   155.82(BP est)    -39.41(MP est)      ----(BP exp)      ----(MP exp)  ClCPCBr ,-39.41,Pred,N
CH2BrClFP,PC(F)(Br)Cl,7,5,9432,179.353,(bromochlorofluoromethyl)phosphane,N,PC(F)(Br)Cl,"InChI=1S/CH2BrClFP/c2-1(3,4)5/h5H2",InChIKey=CHVDNOQHTZYMFG-UHFFFAOYSA-N,107.23,Pr,   107.23(BP est)    -49.54(MP est)      ----(BP exp)      ----(MP exp)  PC(F)(Br)Cl ,-49.54,Pred,N
CH2BrCl2P,BrC(Cl)(P)Cl,7,5,10131,195.805,(bromodichloromethyl)phosphane,N,BrC(Cl)(P)Cl,"InChI=1S/CH2BrCl2P/c2-1(3,4)5/h5H2",InChIKey=JVYVBTRFEZWCFN-UHFFFAOYSA-N,141.63,Pr,   141.63(BP est)    -24.83(MP est)      ----(BP exp)      ----(MP exp)  BrC(Cl)(P)Cl ,-24.83,Pred,N
C2IOP,O=PC#CI,5,5,10305,197.899,(iodoethynyl)(oxo)phosphane,N,O=PC#CI,InChI=1S/C2IOP/c3-1-2-5-4,InChIKey=LBBBOQKFAMSREV-UHFFFAOYSA-N,204.67,Pr,   204.67(BP est)     27.12(MP est)      ----(BP exp)      ----(MP exp)  O=PC#CI ,27.12,Pred,N
C3H4IP,PC(I)C#C,9,5,10306,197.943,(1-iodoprop-2-yn-1-yl)phosphane,N,PC(I)C#C,"InChI=1S/C3H4IP/c1-2-3(4)5/h1,3H,5H2",InChIKey=YKAKLIQPJUAJKP-UHFFFAOYSA-N,164.26,Pr,   164.26(BP est)    -22.97(MP est)      ----(BP exp)      ----(MP exp)  PC(I)C#C ,-22.97,Pred,N
C3H4IP,PCC#CI,9,5,10307,197.943,(3-iodoprop-2-yn-1-yl)phosphane,N,PCC#CI,"InChI=1S/C3H4IP/c4-2-1-3-5/h3,5H2",InChIKey=UEFKGXSLVSSZKJ-UHFFFAOYSA-N,184.79,Pr,   184.79(BP est)     20.09(MP est)      ----(BP exp)      ----(MP exp)  PCC#CI ,20.09,Pred,N
C3H4IP,CPC#CI,9,5,10308,197.943,(iodoethynyl)(methyl)phosphane,N,CPC#CI,"InChI=1S/C3H4IP/c1-5-3-2-4/h5H,1H3",InChIKey=YAACHFDBOMVHLH-UHFFFAOYSA-N,166.77,Pr,   166.77(BP est)      6.64(MP est)      ----(BP exp)      ----(MP exp)  CPC#CI ,6.64,Pred,N
C3H4IP,IC1C=CP1,9,5,10309,197.943,"2-iodo-1,2-dihydrophosphete",N,IC1C=CP1,"InChI=1S/C3H4IP/c4-3-1-2-5-3/h1-3,5H",InChIKey=PSDXSYFRZJKQOK-UHFFFAOYSA-N,157.65,Pr,   157.65(BP est)    -39.72(MP est)      ----(BP exp)      ----(MP exp)  IC1C=CP1 ,-39.72,Pred,N
C3H4IP,IC1=CPC1,9,5,10310,197.943,"3-iodo-1,2-dihydrophosphete",N,IC1=CPC1,"InChI=1S/C3H4IP/c4-3-1-5-2-3/h1,5H,2H2",InChIKey=MYGXVOWLBTTXDQ-UHFFFAOYSA-N,162.07,Pr,   162.07(BP est)    -30.05(MP est)      ----(BP exp)      ----(MP exp)  IC1=CPC1 ,-30.05,Pred,N
C3H4IP,IC1=CCP1,9,5,10311,197.943,"4-iodo-1,2-dihydrophosphete",N,IC1=CCP1,"InChI=1S/C3H4IP/c4-3-1-2-5-3/h1,5H,2H2",InChIKey=AOGBZOAHQAJKHK-UHFFFAOYSA-N,162.07,Pr,   162.07(BP est)    -30.05(MP est)      ----(BP exp)      ----(MP exp)  IC1=CCP1 ,-30.05,Pred,N
C3H4IP,ICPC#C,9,5,10312,197.943,ethynyl(iodomethyl)phosphane,N,ICPC#C,"InChI=1S/C3H4IP/c1-2-5-3-4/h1,5H,3H2",InChIKey=ZNIQGFHEEOXEKR-UHFFFAOYSA-N,158.73,Pr,   158.73(BP est)    -25.27(MP est)      ----(BP exp)      ----(MP exp)  ICPC#C ,-25.27,Pred,N
C2H2IOP,O=PC(I)=C,7,5,10522,199.915,(1-iodovinyl)(oxo)phosphane,N,O=PC(I)=C,InChI=1S/C2H2IOP/c1-2(3)5-4/h1H2,InChIKey=DLFIYMVSEIEJPN-UHFFFAOYSA-N,183.04,Pr,   183.04(BP est)    -29.47(MP est)      ----(BP exp)      ----(MP exp)  O=PC(I)=C ,-29.47,Pred,N
C2H2IOP,O=PC=CI,7,5,10523,199.915,(2-iodovinyl)(oxo)phosphane,N,O=PC=CI,InChI=1S/C2H2IOP/c3-1-2-5-4/h1-2H,InChIKey=FYEDJZNGJKOZAE-UHFFFAOYSA-N,196.39,Pr,   196.39(BP est)    -20.25(MP est)      ----(BP exp)      ----(MP exp)  O=PC=CI ,-20.25,Pred,N
C3H6IP,IC(P)C=C,11,5,10534,199.959,(1-iodoallyl)phosphane,N,IC(P)C=C,"InChI=1S/C3H6IP/c1-2-3(4)5/h2-3H,1,5H2",InChIKey=WNXIBDMYAHGPGX-UHFFFAOYSA-N,155.04,Pr,   155.04(BP est)    -50.03(MP est)      ----(BP exp)      ----(MP exp)  IC(P)C=C ,-50.03,Pred,N
C3H6IP,CPC(I)=C,11,5,10535,199.959,(1-iodovinyl)(methyl)phosphane,N,CPC(I)=C,"InChI=1S/C3H6IP/c1-3(4)5-2/h5H,1H2,2H3",InChIKey=DBZBFNQDBGNQPK-UHFFFAOYSA-N,143.34,Pr,   143.34(BP est)    -61.11(MP est)      ----(BP exp)      ----(MP exp)  CPC(I)=C ,-61.11,Pred,N
C3H6IP,PCC(I)=C,11,5,10536,199.959,(2-iodoallyl)phosphane,N,PCC(I)=C,"InChI=1S/C3H6IP/c1-3(4)2-5/h1-2,5H2",InChIKey=IZDUNUPCBOOVHM-UHFFFAOYSA-N,162.2,Pr,   162.20(BP est)    -47.42(MP est)      ----(BP exp)      ----(MP exp)  PCC(I)=C ,-47.42,Pred,N
C3H6IP,CPC=CI,11,5,10537,199.959,(2-iodovinyl)(methyl)phosphane,N,CPC=CI,"InChI=1S/C3H6IP/c1-5-3-2-4/h2-3,5H,1H3",InChIKey=RSOKJZIRLDYGMB-UHFFFAOYSA-N,157.79,Pr,   157.79(BP est)    -51.57(MP est)      ----(BP exp)      ----(MP exp)  CPC=CI ,-51.57,Pred,N
C3H6IP,PCC=CI,11,5,10538,199.959,(3-iodoallyl)phosphane,N,PCC=CI,"InChI=1S/C3H6IP/c4-2-1-3-5/h1-2H,3,5H2",InChIKey=QJOQSTZMFINVKI-UHFFFAOYSA-N,176.14,Pr,   176.14(BP est)    -38.03(MP est)      ----(BP exp)      ----(MP exp)  PCC=CI ,-38.03,Pred,N
C3H6IP,ICPC=C,11,5,10539,199.959,(iodomethyl)(vinyl)phosphane,N,ICPC=C,"InChI=1S/C3H6IP/c1-2-5-3-4/h2,5H,1,3H2",InChIKey=DHWNWCNXBVANJM-UHFFFAOYSA-N,149.41,Pr,   149.41(BP est)    -52.36(MP est)      ----(BP exp)      ----(MP exp)  ICPC=C ,-52.36,Pred,N
C3H6IP,ICP1CC1,11,5,10540,199.959,1-(iodomethyl)phosphirane,N,ICP1CC1,InChI=1S/C3H6IP/c4-3-5-1-2-5/h1-3H2,InChIKey=JBMRITJOABDSIP-UHFFFAOYSA-N,159.97,Pr,   159.97(BP est)    -36.23(MP est)      ----(BP exp)      ----(MP exp)  ICP1CC1 ,-36.23,Pred,N
C3H6IP,CP1C(I)C1,11,5,10541,199.959,2-iodo-1-methylphosphirane,N,CP1C(I)C1,"InChI=1S/C3H6IP/c1-5-2-3(5)4/h3H,2H2,1H3",InChIKey=WTCDBWFQUITTNA-UHFFFAOYSA-N,153.66,Pr,   153.66(BP est)    -40.19(MP est)      ----(BP exp)      ----(MP exp)  CP1C(I)C1 ,-40.19,Pred,N
C3H6IP,IC1CCP1,11,5,10542,199.959,2-iodophosphetane,N,IC1CCP1,"InChI=1S/C3H6IP/c4-3-1-2-5-3/h3,5H,1-2H2",InChIKey=UDEBVLPKQMYHBY-UHFFFAOYSA-N,154.79,Pr,   154.79(BP est)    -40.94(MP est)      ----(BP exp)      ----(MP exp)  IC1CCP1 ,-40.94,Pred,N
C3H6IP,IC1CPC1,11,5,10543,199.959,3-iodophosphetane,N,IC1CPC1,"InChI=1S/C3H6IP/c4-3-1-5-2-3/h3,5H,1-2H2",InChIKey=GJLSBVPYMCIBFC-UHFFFAOYSA-N,154.79,Pr,   154.79(BP est)    -40.94(MP est)      ----(BP exp)      ----(MP exp)  IC1CPC1 ,-40.94,Pred,N
C2H4IOP,O=PC(I)C,9,5,10708,201.931,(1-iodoethyl)(oxo)phosphane,N,O=PC(I)C,"InChI=1S/C2H4IOP/c1-2(3)5-4/h2H,1H3",InChIKey=DDRRWKBPNPSYSF-UHFFFAOYSA-N,177.73,Pr,   177.73(BP est)    -30.66(MP est)      ----(BP exp)      ----(MP exp)  O=PC(I)C ,-30.66,Pred,N
C2H4IOP,O=PCCI,9,5,10709,201.931,(2-iodoethyl)(oxo)phosphane,N,O=PCCI,InChI=1S/C2H4IOP/c3-1-2-5-4/h1-2H2,InChIKey=QNSFOVKLXSKPEO-UHFFFAOYSA-N,190.17,Pr,   190.17(BP est)    -19.53(MP est)      ----(BP exp)      ----(MP exp)  O=PCCI ,-19.53,Pred,N
C2H4IOP,O=P1C(I)C1,9,5,10711,201.931,2-iodophosphirane 1-oxide,N,O=P1C(I)C1,"InChI=1S/C2H4IOP/c3-2-1-5(2)4/h2,5H,1H2",InChIKey=BESRUJYXBXAAMZ-UHFFFAOYSA-N,189.88,Pr,   189.88(BP est)    -17.07(MP est)      ----(BP exp)      ----(MP exp)  O=P1C(I)C1 ,-17.07,Pred,N