Formula,SMILES,Tot_atoms,Tot_nH_atoms,Dataset_no,Molecular_weight,IUPAC_chemname,Metalloid,EPISUITE,InChI_Code,InChI_Key,Boiling_Point,BP_basis,EPIsuite_output,MP,Basis,Life
C2H5ClIOP,ClC(C)([P]([H])([H])=O)I,11,6,15094,238.389,(1-chloro-1-iodoethyl)phosphine oxide,N,CC(Cl)(I)P=O,"InChI=1S/C2H5ClIOP/c1-2(3,4)6-5/h6H2,1H3",InChIKey=XIRJEDCCCBOFLO-UHFFFAOYSA-N,202,Pr,   202.00(BP est)      0.10(MP est)      ----(BP exp)      ----(MP exp)  CC(Cl)(I)P=O ,0.1,Pred,N
C2H5ClIOP,ClC([P]([H])([H])=O)CI,11,6,15095,238.389,(1-chloro-2-iodoethyl)phosphine oxide,N,O=PC(Cl)CI,"InChI=1S/C2H5ClIOP/c3-2(1-4)6-5/h2H,1,6H2",InChIKey=UVZRKNOIOQOMJA-UHFFFAOYSA-N,220.24,Pr,   220.24(BP est)     -3.29(MP est)      ----(BP exp)      ----(MP exp)  O=PC(Cl)CI ,-3.29,Pred,N
C2H5ClIOP,IC([P]([H])([H])=O)CCl,11,6,15096,238.389,(2-chloro-1-iodoethyl)phosphine oxide,N,O=PC(I)CCl,"InChI=1S/C2H5ClIOP/c3-1-2(4)6-5/h2H,1,6H2",InChIKey=NJNYUFUGDKNHJH-UHFFFAOYSA-N,230.46,Pr,   230.46(BP est)     -0.30(MP est)      ----(BP exp)      ----(MP exp)  O=PC(I)CCl ,-0.3,Pred,N
C2H5ClIOP,ClC(C[P]([H])([H])=O)I,11,6,15097,238.389,(2-chloro-2-iodoethyl)phosphine oxide,N,O=PCC(Cl)I,"InChI=1S/C2H5ClIOP/c3-2(4)1-6-5/h2H,1,6H2",InChIKey=MYUADHNYVYLMMZ-UHFFFAOYSA-N,220.24,Pr,   220.24(BP est)     -3.29(MP est)      ----(BP exp)      ----(MP exp)  O=PCC(Cl)I ,-3.29,Pred,N
CH2Br2FOP,BrC(F)(Br)[P]([H])([H])=O,8,6,15098,239.806,(dibromofluoromethyl)phosphine oxide,N,O=PC(F)(Br)Br,"InChI=1S/CH2Br2FOP/c2-1(3,4)6-5/h6H2",InChIKey=UXWCRLZIXFAFDM-UHFFFAOYSA-N,187.71,Pr,   187.71(BP est)      6.39(MP est)      ----(BP exp)      ----(MP exp)  O=PC(F)(Br)Br ,6.39,Pred,N
CH2ClFIOP,ClC(I)(PO)F,8,6,15099,242.353,(chlorofluoroiodomethyl)(hydroxy)phosphane,N,OPC(F)(Cl)I,"InChI=1S/CH2ClFIOP/c2-1(3,4)6-5/h5-6H",InChIKey=WJHWWYONJIAWJJ-UHFFFAOYSA-N,216.27,Pr,   216.27(BP est)      3.65(MP est)      ----(BP exp)      ----(MP exp)  OPC(F)(Cl)I ,3.65,Pred,N
CH2Br2ClOP,BrC(Cl)(Br)[P]([H])([H])=O,8,6,15100,256.258,(dibromochloromethyl)phosphine oxide,N,O=PC(Cl)(Br)Br,"InChI=1S/CH2Br2ClOP/c2-1(3,4)6-5/h6H2",InChIKey=WXGDYHWMMAHBSW-UHFFFAOYSA-N,217.2,Pr,   217.20(BP est)     29.67(MP est)      ----(BP exp)      ----(MP exp)  O=PC(Cl)(Br)Br ,29.67,Pred,N
CH2Cl2IOP,ClC(I)(Cl)[P]([H])([H])=O,8,6,15101,258.804,(dichloroiodomethyl)phosphine oxide,N,O=PC(Cl)(Cl)I,"InChI=1S/CH2Cl2IOP/c2-1(3,4)6-5/h6H2",InChIKey=PGXAISZCWBMVDB-UHFFFAOYSA-N,213.51,Pr,   213.51(BP est)     12.78(MP est)      ----(BP exp)      ----(MP exp)  O=PC(Cl)(Cl)I ,12.78,Pred,N
CH2BrFIOP,BrC(F)(I)[P]([H])([H])=O,8,6,15103,286.807,(bromofluoroiodomethyl)phosphine oxide,N,O=PC(F)(Br)I,"InChI=1S/CH2BrFIOP/c2-1(3,4)6-5/h6H2",InChIKey=QGXXRGUVZCRYCC-UHFFFAOYSA-N,216.64,Pr,   216.64(BP est)     13.97(MP est)      ----(BP exp)      ----(MP exp)  O=PC(F)(Br)I ,13.97,Pred,N
C4H9PSe,CP(C)(C=C)=[Se],15,6,15727,167.05,dimethyl(vinyl)phosphine selenide,N,CP(C)(C=C)=[Se],"InChI=1S/C4H9PSe/c1-4-5(2,3)6/h4H,1H2,2-3H3",InChIKey=LTGUMIWFSOPZGW-UHFFFAOYSA-N,152.44,Pr,   152.44(BP est)    -28.05(MP est)      ----(BP exp)      ----(MP exp)  CP(C)(C=C)=[Se] ,-28.05,Pred,N
C4H11PSe,[SeH]CCP(C)C,17,6,15772,169.066,2-(dimethylphosphaneyl)ethane-1-selenol,N,[Se]([H])CCP(C)C,"InChI=1S/C4H11PSe/c1-5(2)3-4-6/h6H,3-4H2,1-2H3",InChIKey=DALNRBXVGVSTRP-UHFFFAOYSA-N,156.1,Pr,   156.10(BP est)    -17.92(MP est)      ----(BP exp)      ----(MP exp)  [Se]([H])CCP(C)C ,-17.92,Pred,N
C4H11PSe,[Se]=P(CC)(C)C,17,6,15773,169.066,ethyldimethylphosphine selenide,N,[Se]=P(CC)(C)C,"InChI=1S/C4H11PSe/c1-4-5(2,3)6/h4H2,1-3H3",InChIKey=HOWHXMFGDZBDEX-UHFFFAOYSA-N,154.08,Pr,   154.08(BP est)    -26.69(MP est)      ----(BP exp)      ----(MP exp)  [Se]=P(CC)(C)C ,-26.69,Pred,N
C3H10NPSe,[Se]=P(C)(NC)C,16,6,15846,170.054,"N,P,P-trimethylphosphinoselenoic amide",N,[Se]=P(C)(NC)C,"InChI=1S/C3H10NPSe/c1-4-5(2,3)6/h1-3H3,(H,4,6)",InChIKey=JRDXSGRUPSLLFX-UHFFFAOYSA-N,172.78,Pr,   172.78(BP est)     -0.54(MP est)      ----(BP exp)      ----(MP exp)  [Se]=P(C)(NC)C ,-0.54,Pred,N
C3H9OPSe,CP(C)(OC)=[Se],15,6,15848,171.038,O-methyl dimethylphosphinoselenoate,N,CP(C)(OC)=[Se],"InChI=1S/C3H9OPSe/c1-4-5(2,3)6/h1-3H3",InChIKey=WMWUYEBPROACHN-UHFFFAOYSA-N,154.93,Pr,   154.93(BP est)    -20.96(MP est)      ----(BP exp)      ----(MP exp)  CP(C)(OC)=[Se] ,-20.96,Pred,N
C3H9OPSe,CP(C)([Se]C)=O,15,6,15849,171.038,Se-methyl dimethylphosphinoselenoate,N,CP(C)([Se]C)=O,"InChI=1S/C3H9OPSe/c1-5(2,4)6-3/h1-3H3",InChIKey=LFTKEOVIFDCVOT-UHFFFAOYSA-N,188.39,Pr,   188.39(BP est)    -12.31(MP est)      ----(BP exp)      ----(MP exp)  CP(C)([Se]C)=O ,-12.31,Pred,N
C2H8NOPSe,O=P(C)([Se]C)N,14,6,15880,172.026,Se-methyl P-methylphosphonamidoselenoate,N,O=P(C)([Se]C)N,"InChI=1S/C2H8NOPSe/c1-5(3,4)6-2/h1-2H3,(H2,3,4)",InChIKey=TWBGMLAWLURUCX-UHFFFAOYSA-N,220.9,Pr,   220.90(BP est)     33.18(MP est)      ----(BP exp)      ----(MP exp)  O=P(C)([Se]C)N ,33.18,Pred,N
C2H7O2PSe,[Se]=P(CC)(O)O,13,6,15881,173.01,"ethylphosphonoselenoic O,O-acid",N,[Se]=P(CC)(O)O,"InChI=1S/C2H7O2PSe/c1-2-5(3,4)6/h2H2,1H3,(H2,3,4,6)",InChIKey=CPIUTLYZJKAPAD-UHFFFAOYSA-N,284.6,Pr,   284.60(BP est)     60.96(MP est)      ----(BP exp)      ----(MP exp)  [Se]=P(CC)(O)O ,60.96,Pred,N
C2H7O2PSe,[Se]=P(C)(O)OC,13,6,15882,173.01,O-methyl O-hydrogen methylphosphonoselenoate,N,[Se]=P(C)(O)OC,"InChI=1S/C2H7O2PSe/c1-4-5(2,3)6/h1-2H3,(H,3,6)",InChIKey=UNRSLMMJBYVOOZ-UHFFFAOYSA-N,225.54,Pr,   225.54(BP est)     24.43(MP est)      ----(BP exp)      ----(MP exp)  [Se]=P(C)(O)OC ,24.43,Pred,N
CH5O3PSe,O=P(C[SeH])(O)O,11,6,15926,174.982,(hydroselenomethyl)phosphonic acid,N,O=P(C[Se]([H]))(O)O,"InChI=1S/CH5O3PSe/c2-5(3,4)1-6/h6H,1H2,(H2,2,3,4)",InChIKey=BNIWSWQUXXHYBC-UHFFFAOYSA-N,310.01,Pr,   310.01(BP est)     71.18(MP est)      ----(BP exp)      ----(MP exp)  O=P(C[Se]([H]))(O)O ,71.18,Pred,N
CH5O3PSe,[Se]=P(OC)(O)O,11,6,15927,174.982,"O-methyl O,O-dihydrogen phosphoroselenoate",N,[Se]=P(OC)(O)O,"InChI=1S/CH5O3PSe/c1-4-5(2,3)6/h1H3,(H2,2,3,6)",InChIKey=WNMWCRVYMHAGQI-UHFFFAOYSA-N,285.2,Pr,   285.20(BP est)     66.62(MP est)      ----(BP exp)      ----(MP exp)  [Se]=P(OC)(O)O ,66.62,Pred,N
C3H9PSe2,CP(C)([Se]C)=[Se],15,6,16004,233.999,methyl dimethylphosphinodiselenoate,N,CP(C)([Se]C)=[Se],"InChI=1S/C3H9PSe2/c1-4(2,5)6-3/h1-3H3",InChIKey=WGWYNLHDRAOYGD-UHFFFAOYSA-N,211.87,Pr,   211.87(BP est)     24.71(MP est)      ----(BP exp)      ----(MP exp)  CP(C)([Se]C)=[Se] ,24.71,Pred,N
C2H7OPSSe,[Se]=P(C)(OC)S,13,6,16015,189.071,O-methyl S-hydrogen methylphosphonoselenothioate,N,[Se]=P(C)(OC)S,"InChI=1S/C2H7OPSSe/c1-3-4(2,5)6/h1-2H3,(H,5,6)",InChIKey=UQLRDTMLMRATEC-UHFFFAOYSA-N,206.1,Pr,   206.10(BP est)      6.57(MP est)      ----(BP exp)      ----(MP exp)  [Se]=P(C)(OC)S ,6.57,Pred,N
CH5OPS2Se,[Se]=P(S)(OC)S,11,6,16129,207.104,"O-methyl S,S-dihydrogen phosphoroselenodithioate",N,[Se]=P(S)(OC)S,"InChI=1S/CH5OPS2Se/c1-2-3(4,5)6/h1H3,(H2,4,5,6)",InChIKey=ZWXQJPLDVHFIDL-UHFFFAOYSA-N,251.77,Pr,   251.77(BP est)     32.50(MP est)      ----(BP exp)      ----(MP exp)  [Se]=P(S)(OC)S ,32.5,Pred,N
C2H5F2PSe,CCP(F)(F)=[Se],11,6,16320,176.993,ethylphosphonoselenoic difluoride,N,CCP(F)(F)=[Se],"InChI=1S/C2H5F2PSe/c1-2-5(3,4)6/h2H2,1H3",InChIKey=FGFBZKXDBKCMMK-UHFFFAOYSA-N,113.1,Pr,   113.10(BP est)    -49.34(MP est)      ----(BP exp)      ----(MP exp)  CCP(F)(F)=[Se] ,-49.34,Pred,N
C3H9PSSe,CP(C)(SC)=[Se],15,6,17775,187.099,S-methyl dimethylphosphinoselenothioate,N,CP(C)(SC)=[Se],"InChI=1S/C3H9PSSe/c1-4(2,6)5-3/h1-3H3",InChIKey=HOIHPBQEXVUCHQ-UHFFFAOYSA-N,193.37,Pr,   193.37(BP est)     -3.66(MP est)      ----(BP exp)      ----(MP exp)  CP(C)(SC)=[Se] ,-3.66,Pred,N