Formula,SMILES,Tot_atoms,Tot_nH_atoms,Dataset_no,Molecular_weight,IUPAC_chemname,Metalloid,EPISUITE,InChI_Code,InChI_Key,Boiling_Point,BP_basis,EPIsuite_output,MP,Basis,Life
C2H4BrCl2P,PCC(Cl)(Br)Cl,10,6,11053,209.832,"(2-bromo-2,2-dichloroethyl)phosphane",N,PCC(Cl)(Br)Cl,"InChI=1S/C2H4BrCl2P/c3-2(4,5)1-6/h1,6H2",InChIKey=RENCGYUKFQDFGC-UHFFFAOYSA-N,163.58,Pr,   163.58(BP est)    -12.79(MP est)      ----(BP exp)      ----(MP exp)  PCC(Cl)(Br)Cl ,-12.79,Pred,N
C2H4BrCl2P,ClCPC(Br)Cl,10,6,11054,209.832,(bromochloromethyl)(chloromethyl)phosphane,N,ClCPC(Br)Cl,"InChI=1S/C2H4BrCl2P/c3-2(5)6-1-4/h2,6H,1H2",InChIKey=RDHMLSZZEDIFLO-UHFFFAOYSA-N,188.15,Pr,   188.15(BP est)    -22.51(MP est)      ----(BP exp)      ----(MP exp)  ClCPC(Br)Cl ,-22.51,Pred,N
C2H4BrCl2P,CPC(Cl)(Cl)Br,10,6,11055,209.832,(bromodichloromethyl)(methyl)phosphane,N,CPC(Cl)(Cl)Br,"InChI=1S/C2H4BrCl2P/c1-6-2(3,4)5/h6H,1H3",InChIKey=XQFYRHLOBGKSLE-UHFFFAOYSA-N,144.77,Pr,   144.77(BP est)    -26.46(MP est)      ----(BP exp)      ----(MP exp)  CPC(Cl)(Cl)Br ,-26.46,Pred,N
C2H4BrCl2P,BrCPC(Cl)Cl,10,6,11056,209.832,(bromomethyl)(dichloromethyl)phosphane,N,BrCPC(Cl)Cl,"InChI=1S/C2H4BrCl2P/c3-1-6-2(4)5/h2,6H,1H2",InChIKey=KMUDHXRHXJJPQP-UHFFFAOYSA-N,176.85,Pr,   176.85(BP est)    -25.81(MP est)      ----(BP exp)      ----(MP exp)  BrCPC(Cl)Cl ,-25.81,Pred,N
C4H4IP,C=CPC#CI,10,6,11073,209.954,(iodoethynyl)(vinyl)phosphane,N,C=CPC#CI,"InChI=1S/C4H4IP/c1-2-6-4-3-5/h2,6H,1H2",InChIKey=KCXTVCLVJHYYGL-UHFFFAOYSA-N,186.15,Pr,   186.15(BP est)     17.06(MP est)      ----(BP exp)      ----(MP exp)  C=CPC#CI ,17.06,Pred,N
C4H4IP,IC#CP1CC1,10,6,11074,209.954,1-(iodoethynyl)phosphirane,N,IC#CP1CC1,InChI=1S/C4H4IP/c5-1-2-6-3-4-6/h3-4H2,InChIKey=NFAGYTPLHWKGDP-UHFFFAOYSA-N,195.96,Pr,   195.96(BP est)     22.23(MP est)      ----(BP exp)      ----(MP exp)  IC#CP1CC1 ,22.23,Pred,N
C4H4IP,C#CP1C(I)C1,10,6,11075,209.954,1-ethynyl-2-iodophosphirane,N,C#CP1C(I)C1,"InChI=1S/C4H4IP/c1-2-6-3-4(6)5/h1,4H,3H2",InChIKey=DRJXJIGJRLVZCV-UHFFFAOYSA-N,182.44,Pr,   182.44(BP est)     -2.67(MP est)      ----(BP exp)      ----(MP exp)  C#CP1C(I)C1 ,-2.67,Pred,N
C4H4IP,IC1=CC=CP1,10,6,11076,209.954,2-iodo-1H-phosphole,N,IC1=CC=CP1,"InChI=1S/C4H4IP/c5-4-2-1-3-6-4/h1-3,6H",InChIKey=SLCJEYIGVLONQI-UHFFFAOYSA-N,187.77,Pr,   187.77(BP est)    -18.29(MP est)      ----(BP exp)      ----(MP exp)  IC1=CC=CP1 ,-18.29,Pred,N
C4H4IP,IC1=CPC=C1,10,6,11077,209.954,3-iodo-1H-phosphole,N,IC1=CPC=C1,"InChI=1S/C4H4IP/c5-4-1-2-6-3-4/h1-3,6H",InChIKey=UXOVNQOPSJZANG-UHFFFAOYSA-N,187.77,Pr,   187.77(BP est)    -18.29(MP est)      ----(BP exp)      ----(MP exp)  IC1=CPC=C1 ,-18.29,Pred,N
C4H4IP,IC(PC#C)=C,10,6,11078,209.954,ethynyl(1-iodovinyl)phosphane,N,IC(PC#C)=C,"InChI=1S/C4H4IP/c1-3-6-4(2)5/h1,6H,2H2",InChIKey=LPIHWOZYAXVIEG-UHFFFAOYSA-N,172.69,Pr,   172.69(BP est)    -23.42(MP est)      ----(BP exp)      ----(MP exp)  IC(PC#C)=C ,-23.42,Pred,N
C4H4IP,IC=CPC#C,10,6,11079,209.954,ethynyl(2-iodovinyl)phosphane,N,IC=CPC#C,"InChI=1S/C4H4IP/c1-2-6-4-3-5/h1,3-4,6H",InChIKey=OJDGOABWVXNSKG-UHFFFAOYSA-N,186.34,Pr,   186.34(BP est)    -14.11(MP est)      ----(BP exp)      ----(MP exp)  IC=CPC#C ,-14.11,Pred,N
C3H2IOP,O=PC(I)C#C,8,6,11132,211.926,(1-iodoprop-2-yn-1-yl)(oxo)phosphane,N,O=PC(I)C#C,"InChI=1S/C3H2IOP/c1-2-3(4)6-5/h1,3H",InChIKey=SNPNRHXDIMXQLN-UHFFFAOYSA-N,205.14,Pr,   205.14(BP est)      6.46(MP est)      ----(BP exp)      ----(MP exp)  O=PC(I)C#C ,6.46,Pred,N
C3H2IOP,O=PCC#CI,8,6,11133,211.926,(3-iodoprop-2-yn-1-yl)(oxo)phosphane,N,O=PCC#CI,InChI=1S/C3H2IOP/c4-2-1-3-6-5/h3H2,InChIKey=WIPVMNTUGLIXAE-UHFFFAOYSA-N,223.91,Pr,   223.91(BP est)     36.39(MP est)      ----(BP exp)      ----(MP exp)  O=PCC#CI ,36.39,Pred,N
C4H6IP,CPC(I)C#C,12,6,11134,211.97,(1-iodoprop-2-yn-1-yl)(methyl)phosphane,N,CPC(I)C#C,"InChI=1S/C4H6IP/c1-3-4(5)6-2/h1,4,6H,2H3",InChIKey=YUPVQFNCJUEXHP-UHFFFAOYSA-N,167.28,Pr,   167.28(BP est)    -24.64(MP est)      ----(BP exp)      ----(MP exp)  CPC(I)C#C ,-24.64,Pred,N
C4H6IP,C=CPC(I)=C,12,6,11135,211.97,(1-iodovinyl)(vinyl)phosphane,N,C=CPC(I)=C,"InChI=1S/C4H6IP/c1-3-6-4(2)5/h3,6H,1-2H2",InChIKey=RGIMGVZDPDWGDK-UHFFFAOYSA-N,163.62,Pr,   163.62(BP est)    -50.43(MP est)      ----(BP exp)      ----(MP exp)  C=CPC(I)=C ,-50.43,Pred,N
C4H6IP,C=CPC=CI,12,6,11136,211.97,(2-iodovinyl)(vinyl)phosphane,N,C=CPC=CI,"InChI=1S/C4H6IP/c1-2-6-4-3-5/h2-4,6H,1H2",InChIKey=XQGAUMVEPTUKJY-UHFFFAOYSA-N,177.53,Pr,   177.53(BP est)    -41.05(MP est)      ----(BP exp)      ----(MP exp)  C=CPC=CI ,-41.05,Pred,N
C4H6IP,CPCC#CI,12,6,11137,211.97,(3-iodoprop-2-yn-1-yl)(methyl)phosphane,N,CPCC#CI,"InChI=1S/C4H6IP/c1-6-4-2-3-5/h6H,4H2,1H3",InChIKey=MFSZOSNUJPYBCH-UHFFFAOYSA-N,187.68,Pr,   187.68(BP est)     18.38(MP est)      ----(BP exp)      ----(MP exp)  CPCC#CI ,18.38,Pred,N
C4H6IP,CP(C)C#CI,12,6,11138,211.97,(iodoethynyl)dimethylphosphane,N,CP(C)C#CI,InChI=1S/C4H6IP/c1-6(2)4-3-5/h1-2H3,InChIKey=CBRQRSXWBPWZMT-UHFFFAOYSA-N,188.5,Pr,   188.50(BP est)     17.94(MP est)      ----(BP exp)      ----(MP exp)  CP(C)C#CI ,17.94,Pred,N
C4H6IP,ICPCC#C,12,6,11139,211.97,(iodomethyl)(prop-2-yn-1-yl)phosphane,N,ICPCC#C,"InChI=1S/C4H6IP/c1-2-3-6-4-5/h1,6H,3-4H2",InChIKey=QBDJXFBSAYZUQL-UHFFFAOYSA-N,179.98,Pr,   179.98(BP est)    -13.43(MP est)      ----(BP exp)      ----(MP exp)  ICPCC#C ,-13.43,Pred,N
C4H6IP,IC(P1CC1)=C,12,6,11140,211.97,1-(1-iodovinyl)phosphirane,N,IC(P1CC1)=C,InChI=1S/C4H6IP/c1-4(5)6-2-3-6/h1-3H2,InChIKey=SEMMMJBGXBCECC-UHFFFAOYSA-N,173.9,Pr,   173.90(BP est)    -34.38(MP est)      ----(BP exp)      ----(MP exp)  IC(P1CC1)=C ,-34.38,Pred,N
C4H6IP,IC=CP1CC1,12,6,11141,211.97,1-(2-iodovinyl)phosphirane,N,IC=CP1CC1,"InChI=1S/C4H6IP/c5-1-2-6-3-4-6/h1-2H,3-4H2",InChIKey=MBEFXNBIXPTJSK-UHFFFAOYSA-N,187.52,Pr,   187.52(BP est)    -25.09(MP est)      ----(BP exp)      ----(MP exp)  IC=CP1CC1 ,-25.09,Pred,N
C4H6IP,ICP1C=CC1,12,6,11142,211.97,"1-(iodomethyl)-1,2-dihydrophosphete",N,ICP1C=CC1,"InChI=1S/C4H6IP/c5-4-6-2-1-3-6/h1-2H,3-4H2",InChIKey=WRFRTBDXMPRCFO-UHFFFAOYSA-N,185.78,Pr,   185.78(BP est)    -24.44(MP est)      ----(BP exp)      ----(MP exp)  ICP1C=CC1 ,-24.44,Pred,N
C4H6IP,CP1C=CC1I,12,6,11143,211.97,"2-iodo-1-methyl-1,2-dihydrophosphete",N,CP1C=CC1I,"InChI=1S/C4H6IP/c1-6-3-2-4(6)5/h2-4H,1H3",InChIKey=WORDYQFAYVAQMA-UHFFFAOYSA-N,179.78,Pr,   179.78(BP est)    -28.31(MP est)      ----(BP exp)      ----(MP exp)  CP1C=CC1I ,-28.31,Pred,N
C4H6IP,IC1CP1C=C,12,6,11144,211.97,2-iodo-1-vinylphosphirane,N,IC1CP1C=C,"InChI=1S/C4H6IP/c1-2-6-3-4(6)5/h2,4H,1,3H2",InChIKey=MOZZENJBURTXQB-UHFFFAOYSA-N,173.55,Pr,   173.55(BP est)    -29.63(MP est)      ----(BP exp)      ----(MP exp)  IC1CP1C=C ,-29.63,Pred,N
C4H6IP,IC1CC=CP1,12,6,11145,211.97,"2-iodo-2,3-dihydro-1H-phosphole",N,IC1CC=CP1,"InChI=1S/C4H6IP/c5-4-2-1-3-6-4/h1,3-4,6H,2H2",InChIKey=RUFDGMVUHYQMTA-UHFFFAOYSA-N,180.86,Pr,   180.86(BP est)    -29.07(MP est)      ----(BP exp)      ----(MP exp)  IC1CC=CP1 ,-29.07,Pred,N
C4H6IP,CP1C=C(I)C1,12,6,11146,211.97,"3-iodo-1-methyl-1,2-dihydrophosphete",N,CP1C=C(I)C1,"InChI=1S/C4H6IP/c1-6-2-4(5)3-6/h2H,3H2,1H3",InChIKey=UZUWRFSZINIMPZ-UHFFFAOYSA-N,184.01,Pr,   184.01(BP est)    -18.69(MP est)      ----(BP exp)      ----(MP exp)  CP1C=C(I)C1 ,-18.69,Pred,N
C4H6IP,IC1C=CPC1,12,6,11147,211.97,"3-iodo-2,3-dihydro-1H-phosphole",N,IC1C=CPC1,"InChI=1S/C4H6IP/c5-4-1-2-6-3-4/h1-2,4,6H,3H2",InChIKey=MVDMHLDPWGGONG-UHFFFAOYSA-N,180.86,Pr,   180.86(BP est)    -29.07(MP est)      ----(BP exp)      ----(MP exp)  IC1C=CPC1 ,-29.07,Pred,N
C4H6IP,CP1C(I)=CC1,12,6,11148,211.97,"4-iodo-1-methyl-1,2-dihydrophosphete",N,CP1C(I)=CC1,"InChI=1S/C4H6IP/c1-6-3-2-4(6)5/h2H,3H2,1H3",InChIKey=LIPGDSQVPOQIAZ-UHFFFAOYSA-N,184.01,Pr,   184.01(BP est)    -18.69(MP est)      ----(BP exp)      ----(MP exp)  CP1C(I)=CC1 ,-18.69,Pred,N
C4H6IP,IC1=CPCC1,12,6,11149,211.97,"4-iodo-2,3-dihydro-1H-phosphole",N,IC1=CPCC1,"InChI=1S/C4H6IP/c5-4-1-2-6-3-4/h3,6H,1-2H2",InChIKey=CPSJWBAXGDEZNW-UHFFFAOYSA-N,185.07,Pr,   185.07(BP est)    -19.46(MP est)      ----(BP exp)      ----(MP exp)  IC1=CPCC1 ,-19.46,Pred,N
C4H6IP,IC1=CCCP1,12,6,11150,211.97,"5-iodo-2,3-dihydro-1H-phosphole",N,IC1=CCCP1,"InChI=1S/C4H6IP/c5-4-2-1-3-6-4/h2,6H,1,3H2",InChIKey=WYHISROCPBXUCD-UHFFFAOYSA-N,185.07,Pr,   185.07(BP est)    -19.46(MP est)      ----(BP exp)      ----(MP exp)  IC1=CCCP1 ,-19.46,Pred,N
C4H6IP,CCPC#CI,12,6,11151,211.97,ethyl(iodoethynyl)phosphane,N,CCPC#CI,"InChI=1S/C4H6IP/c1-2-6-4-3-5/h6H,2H2,1H3",InChIKey=BXTKKJOYJNFLPX-UHFFFAOYSA-N,187.68,Pr,   187.68(BP est)     18.38(MP est)      ----(BP exp)      ----(MP exp)  CCPC#CI ,18.38,Pred,N
C4H6IP,IC(PC#C)C,12,6,11152,211.97,ethynyl(1-iodoethyl)phosphane,N,IC(PC#C)C,"InChI=1S/C4H6IP/c1-3-6-4(2)5/h1,4,6H,2H3",InChIKey=CRIODFDHGDCVEZ-UHFFFAOYSA-N,167.28,Pr,   167.28(BP est)    -24.64(MP est)      ----(BP exp)      ----(MP exp)  IC(PC#C)C ,-24.64,Pred,N
C4H6IP,ICCPC#C,12,6,11153,211.97,ethynyl(2-iodoethyl)phosphane,N,ICCPC#C,"InChI=1S/C4H6IP/c1-2-6-4-3-5/h1,6H,3-4H2",InChIKey=SAIKSENIYKDQCE-UHFFFAOYSA-N,179.98,Pr,   179.98(BP est)    -13.43(MP est)      ----(BP exp)      ----(MP exp)  ICCPC#C ,-13.43,Pred,N
C4H6IP,CP(CI)C#C,12,6,11154,211.97,ethynyl(iodomethyl)(methyl)phosphane,N,CP(CI)C#C,"InChI=1S/C4H6IP/c1-3-6(2)4-5/h1H,4H2,2H3",InChIKey=VIXQTPIKWOTLQI-UHFFFAOYSA-N,180.81,Pr,   180.81(BP est)    -13.87(MP est)      ----(BP exp)      ----(MP exp)  CP(CI)C#C ,-13.87,Pred,N
C3H4IOP,O=PC(I)C=C,10,6,11252,213.942,(1-iodoallyl)(oxo)phosphane,N,O=PC(I)C=C,"InChI=1S/C3H4IOP/c1-2-3(4)6-5/h2-3H,1H2",InChIKey=SITSBTXBTPDFEG-UHFFFAOYSA-N,196.68,Pr,   196.68(BP est)    -20.37(MP est)      ----(BP exp)      ----(MP exp)  O=PC(I)C=C ,-20.37,Pred,N
C3H4IOP,O=PCC(I)=C,10,6,11253,213.942,(2-iodoallyl)(oxo)phosphane,N,O=PCC(I)=C,InChI=1S/C3H4IOP/c1-3(4)2-6-5/h1-2H2,InChIKey=VLHDTNAMFRVQKL-UHFFFAOYSA-N,203.25,Pr,   203.25(BP est)    -17.93(MP est)      ----(BP exp)      ----(MP exp)  O=PCC(I)=C ,-17.93,Pred,N
C3H4IOP,O=PCC=CI,10,6,11254,213.942,(3-iodoallyl)(oxo)phosphane,N,O=PCC=CI,"InChI=1S/C3H4IOP/c4-2-1-3-6-5/h1-2H,3H2",InChIKey=CEXWWXKJTKSODK-UHFFFAOYSA-N,216.01,Pr,   216.01(BP est)     -8.89(MP est)      ----(BP exp)      ----(MP exp)  O=PCC=CI ,-8.89,Pred,N
C3H4IOP,IC#CPOC,10,6,11255,213.942,(iodoethynyl)(methoxy)phosphane,N,IC#CPOC,"InChI=1S/C3H4IOP/c1-5-6-3-2-4/h6H,1H3",InChIKey=YWRCEALZPQJTOJ-UHFFFAOYSA-N,188.47,Pr,   188.47(BP est)     24.09(MP est)      ----(BP exp)      ----(MP exp)  IC#CPOC ,24.09,Pred,N
C3H4IOP,O=P(C)C#CI,10,6,11256,213.942,(iodoethynyl)(methyl)phosphine oxide,N,O=P(C)C#CI,"InChI=1S/C3H4IOP/c1-6(5)3-2-4/h6H,1H3",InChIKey=IJUOEIVDYCZOHY-UHFFFAOYSA-N,222.17,Pr,   222.17(BP est)     32.23(MP est)      ----(BP exp)      ----(MP exp)  O=P(C)C#CI ,32.23,Pred,N
C3H4IOP,O=P1C=CC1I,10,6,11257,213.942,2-iodo-2H-phosphete 1-oxide,N,O=P1C=CC1I,"InChI=1S/C3H4IOP/c4-3-1-2-6(3)5/h1-3,6H",InChIKey=FPHQTRDWLXVQIQ-UHFFFAOYSA-N,214.11,Pr,   214.11(BP est)     -5.74(MP est)      ----(BP exp)      ----(MP exp)  O=P1C=CC1I ,-5.74,Pred,N
C3H4IOP,O=P1C=C(I)C1,10,6,11259,213.942,3-iodo-2H-phosphete 1-oxide,N,O=P1C=C(I)C1,"InChI=1S/C3H4IOP/c4-3-1-6(5)2-3/h1,6H,2H2",InChIKey=PFZUIBRNRONKPL-UHFFFAOYSA-N,218.02,Pr,   218.02(BP est)      3.79(MP est)      ----(BP exp)      ----(MP exp)  O=P1C=C(I)C1 ,3.79,Pred,N
C3H4IOP,O=P1C(I)=CC1,10,6,11261,213.942,4-iodo-2H-phosphete 1-oxide,N,O=P1C(I)=CC1,"InChI=1S/C3H4IOP/c4-3-1-2-6(3)5/h1,6H,2H2",InChIKey=SQKHYYJEZKSIHZ-UHFFFAOYSA-N,218.02,Pr,   218.02(BP est)      3.79(MP est)      ----(BP exp)      ----(MP exp)  O=P1C(I)=CC1 ,3.79,Pred,N
C3H4IOP,O=P(CI)C#C,10,6,11264,213.942,ethynyl(iodomethyl)phosphine oxide,N,O=P(CI)C#C,"InChI=1S/C3H4IOP/c1-2-6(5)3-4/h1,6H,3H2",InChIKey=CHTWHNATIPTSMZ-UHFFFAOYSA-N,215.06,Pr,   215.06(BP est)      8.68(MP est)      ----(BP exp)      ----(MP exp)  O=P(CI)C#C ,8.68,Pred,N
C4H8IP,CPC(C=C)I,14,6,11268,213.986,(1-iodoallyl)(methyl)phosphane,N,CPC(C=C)I,"InChI=1S/C4H8IP/c1-3-4(5)6-2/h3-4,6H,1H2,2H3",InChIKey=PXGKYWCKYCWCIP-UHFFFAOYSA-N,158.11,Pr,   158.11(BP est)    -51.68(MP est)      ----(BP exp)      ----(MP exp)  CPC(C=C)I ,-51.68,Pred,N
C4H8IP,IC(PC=C)C,14,6,11269,213.986,(1-iodoethyl)(vinyl)phosphane,N,IC(PC=C)C,"InChI=1S/C4H8IP/c1-3-6-4(2)5/h3-4,6H,1H2,2H3",InChIKey=PLMJULFROYGOQH-UHFFFAOYSA-N,158.11,Pr,   158.11(BP est)    -51.68(MP est)      ----(BP exp)      ----(MP exp)  IC(PC=C)C ,-51.68,Pred,N
C4H8IP,CP(C)C(I)=C,14,6,11270,213.986,(1-iodovinyl)dimethylphosphane,N,CP(C)C(I)=C,"InChI=1S/C4H8IP/c1-4(5)6(2)3/h1H2,2-3H3",InChIKey=GTCDXTXDLSSWCM-UHFFFAOYSA-N,166.09,Pr,   166.09(BP est)    -49.52(MP est)      ----(BP exp)      ----(MP exp)  CP(C)C(I)=C ,-49.52,Pred,N
C4H8IP,CPCC(I)=C,14,6,11271,213.986,(2-iodoallyl)(methyl)phosphane,N,CPCC(I)=C,"InChI=1S/C4H8IP/c1-4(5)3-6-2/h6H,1,3H2,2H3",InChIKey=KCEURYUFLZGCBN-UHFFFAOYSA-N,165.23,Pr,   165.23(BP est)    -49.08(MP est)      ----(BP exp)      ----(MP exp)  CPCC(I)=C ,-49.08,Pred,N
C4H8IP,ICCPC=C,14,6,11272,213.986,(2-iodoethyl)(vinyl)phosphane,N,ICCPC=C,"InChI=1S/C4H8IP/c1-2-6-4-3-5/h2,6H,1,3-4H2",InChIKey=RYWIGIJHEIAXQY-UHFFFAOYSA-N,171.04,Pr,   171.04(BP est)    -40.40(MP est)      ----(BP exp)      ----(MP exp)  ICCPC=C ,-40.4,Pred,N
C4H8IP,CP(C)C=CI,14,6,11273,213.986,(2-iodovinyl)dimethylphosphane,N,CP(C)C=CI,"InChI=1S/C4H8IP/c1-6(2)4-3-5/h3-4H,1-2H3",InChIKey=MWSIBAWVUHMCKS-UHFFFAOYSA-N,179.92,Pr,   179.92(BP est)    -40.16(MP est)      ----(BP exp)      ----(MP exp)  CP(C)C=CI ,-40.16,Pred,N
C4H8IP,CPCC=CI,14,6,11274,213.986,(3-iodoallyl)(methyl)phosphane,N,CPCC=CI,"InChI=1S/C4H8IP/c1-6-4-2-3-5/h2-3,6H,4H2,1H3",InChIKey=WSHODTPDRXJQIU-UHFFFAOYSA-N,179.09,Pr,   179.09(BP est)    -39.72(MP est)      ----(BP exp)      ----(MP exp)  CPCC=CI ,-39.72,Pred,N
C4H8IP,CP(CI)C=C,14,6,11275,213.986,(iodomethyl)(methyl)(vinyl)phosphane,N,CP(CI)C=C,"InChI=1S/C4H8IP/c1-3-6(2)4-5/h3H,1,4H2,2H3",InChIKey=VIYRHRUMEUJODJ-UHFFFAOYSA-N,171.89,Pr,   171.89(BP est)    -40.84(MP est)      ----(BP exp)      ----(MP exp)  CP(CI)C=C ,-40.84,Pred,N
C4H8IP,IC(P1CC1)C,14,6,11276,213.986,1-(1-iodoethyl)phosphirane,N,IC(P1CC1)C,"InChI=1S/C4H8IP/c1-4(5)6-2-3-6/h4H,2-3H2,1H3",InChIKey=CHOLQHLFFFQIQU-UHFFFAOYSA-N,168.5,Pr,   168.50(BP est)    -35.60(MP est)      ----(BP exp)      ----(MP exp)  IC(P1CC1)C ,-35.6,Pred,N
C4H8IP,ICCP1CC1,14,6,11277,213.986,1-(2-iodoethyl)phosphirane,N,ICCP1CC1,InChI=1S/C4H8IP/c5-1-2-6-3-4-6/h1-4H2,InChIKey=MHXGFSJOVHGFHK-UHFFFAOYSA-N,181.17,Pr,   181.17(BP est)    -24.40(MP est)      ----(BP exp)      ----(MP exp)  ICCP1CC1 ,-24.4,Pred,N
C4H8IP,ICP1CCC1,14,6,11278,213.986,1-(iodomethyl)phosphetane,N,ICP1CCC1,InChI=1S/C4H8IP/c5-4-6-2-1-3-6/h1-4H2,InChIKey=GTCPOQSBWBLOOL-UHFFFAOYSA-N,183.07,Pr,   183.07(BP est)    -25.61(MP est)      ----(BP exp)      ----(MP exp)  ICP1CCC1 ,-25.61,Pred,N
C4H8IP,IC1CP1CC,14,6,11279,213.986,1-ethyl-2-iodophosphirane,N,IC1CP1CC,"InChI=1S/C4H8IP/c1-2-6-3-4(6)5/h4H,2-3H2,1H3",InChIKey=QQCBFWNFSJILKV-UHFFFAOYSA-N,175.12,Pr,   175.12(BP est)    -28.29(MP est)      ----(BP exp)      ----(MP exp)  IC1CP1CC ,-28.29,Pred,N
C4H8IP,CP1C(I)CC1,14,6,11280,213.986,2-iodo-1-methylphosphetane,N,CP1C(I)CC1,"InChI=1S/C4H8IP/c1-6-3-2-4(6)5/h4H,2-3H2,1H3",InChIKey=UFSIRJGCMRIALX-UHFFFAOYSA-N,177.04,Pr,   177.04(BP est)    -29.49(MP est)      ----(BP exp)      ----(MP exp)  CP1C(I)CC1 ,-29.49,Pred,N
C4H8IP,IC1CCCP1,14,6,11281,213.986,2-iodophospholane,N,IC1CCCP1,"InChI=1S/C4H8IP/c5-4-2-1-3-6-4/h4,6H,1-3H2",InChIKey=GIYJIDNRLCLNRI-UHFFFAOYSA-N,178.12,Pr,   178.12(BP est)    -30.25(MP est)      ----(BP exp)      ----(MP exp)  IC1CCCP1 ,-30.25,Pred,N
C4H8IP,CP1CC(I)C1,14,6,11282,213.986,3-iodo-1-methylphosphetane,N,CP1CC(I)C1,"InChI=1S/C4H8IP/c1-6-2-4(5)3-6/h4H,2-3H2,1H3",InChIKey=VRDWPEFTRULPIA-UHFFFAOYSA-N,177.04,Pr,   177.04(BP est)    -29.49(MP est)      ----(BP exp)      ----(MP exp)  CP1CC(I)C1 ,-29.49,Pred,N
C4H8IP,IC1CPCC1,14,6,11283,213.986,3-iodophospholane,N,IC1CPCC1,"InChI=1S/C4H8IP/c5-4-1-2-6-3-4/h4,6H,1-3H2",InChIKey=WVXSNPLHLGLMLN-UHFFFAOYSA-N,178.12,Pr,   178.12(BP est)    -30.25(MP est)      ----(BP exp)      ----(MP exp)  IC1CPCC1 ,-30.25,Pred,N
C4H8IP,ICPCC=C,14,6,11284,213.986,allyl(iodomethyl)phosphane,N,ICPCC=C,"InChI=1S/C4H8IP/c1-2-3-6-4-5/h2,6H,1,3-4H2",InChIKey=UEVDMPSUGCYMEL-UHFFFAOYSA-N,171.04,Pr,   171.04(BP est)    -40.40(MP est)      ----(BP exp)      ----(MP exp)  ICPCC=C ,-40.4,Pred,N
C4H8IP,CCPC(I)=C,14,6,11285,213.986,ethyl(1-iodovinyl)phosphane,N,CCPC(I)=C,"InChI=1S/C4H8IP/c1-3-6-4(2)5/h6H,2-3H2,1H3",InChIKey=CIGPLBMAFWZGNU-UHFFFAOYSA-N,165.23,Pr,   165.23(BP est)    -49.08(MP est)      ----(BP exp)      ----(MP exp)  CCPC(I)=C ,-49.08,Pred,N
C4H8IP,CCPC=CI,14,6,11286,213.986,ethyl(2-iodovinyl)phosphane,N,CCPC=CI,"InChI=1S/C4H8IP/c1-2-6-4-3-5/h3-4,6H,2H2,1H3",InChIKey=KUBXLZYHYVMIMM-UHFFFAOYSA-N,179.09,Pr,   179.09(BP est)    -39.72(MP est)      ----(BP exp)      ----(MP exp)  CCPC=CI ,-39.72,Pred,N
C2H2IO2P,O=P(C#CI)O,8,6,11451,215.914,(iodoethynyl)phosphinic acid,N,O=P(C#CI)O,"InChI=1S/C2H2IO2P/c3-1-2-6(4)5/h6H,(H,4,5)",InChIKey=OGUCTEWKBWOERT-UHFFFAOYSA-N,282.4,Pr,   282.40(BP est)     63.11(MP est)      ----(BP exp)      ----(MP exp)  O=P(C#CI)O ,63.11,Pred,N
C3H3FIP,PC(C#C)(F)I,9,6,11461,215.934,(1-fluoro-1-iodoprop-2-yn-1-yl)phosphane,N,PC(C#C)(F)I,"InChI=1S/C3H3FIP/c1-2-3(4,5)6/h1H,6H2",InChIKey=HDZHOFGYETXRMX-UHFFFAOYSA-N,157.81,Pr,   157.81(BP est)    -15.85(MP est)      ----(BP exp)      ----(MP exp)  PC(C#C)(F)I ,-15.85,Pred,N
C3H3FIP,PC(F)C#CI,9,6,11462,215.934,(1-fluoro-3-iodoprop-2-yn-1-yl)phosphane,N,PC(F)C#CI,"InChI=1S/C3H3FIP/c4-3(6)1-2-5/h3H,6H2",InChIKey=SWNGJAKSGVPKLH-UHFFFAOYSA-N,174.28,Pr,   174.28(BP est)      9.81(MP est)      ----(BP exp)      ----(MP exp)  PC(F)C#CI ,9.81,Pred,N
C3H3FIP,PC(I)C#CF,9,6,11463,215.934,(3-fluoro-1-iodoprop-2-yn-1-yl)phosphane,N,PC(I)C#CF,"InChI=1S/C3H3FIP/c4-2-1-3(5)6/h3H,6H2",InChIKey=FODQJCHTTMIQCL-UHFFFAOYSA-N,174.28,Pr,   174.28(BP est)      9.81(MP est)      ----(BP exp)      ----(MP exp)  PC(I)C#CF ,9.81,Pred,N
C3H3FIP,ICPC#CF,9,6,11464,215.934,(fluoroethynyl)(iodomethyl)phosphane,N,ICPC#CF,"InChI=1S/C3H3FIP/c4-1-2-6-3-5/h6H,3H2",InChIKey=WKOHSZSWTZSCOT-UHFFFAOYSA-N,168.85,Pr,   168.85(BP est)      7.55(MP est)      ----(BP exp)      ----(MP exp)  ICPC#CF ,7.55,Pred,N
C3H3FIP,FCPC#CI,9,6,11465,215.934,(fluoromethyl)(iodoethynyl)phosphane,N,FCPC#CI,"InChI=1S/C3H3FIP/c4-3-6-2-1-5/h6H,3H2",InChIKey=BGJXGMCHQOOLLI-UHFFFAOYSA-N,168.85,Pr,   168.85(BP est)      7.55(MP est)      ----(BP exp)      ----(MP exp)  FCPC#CI ,7.55,Pred,N
C3H3FIP,FC1(I)C=CP1,9,6,11466,215.934,"2-fluoro-2-iodo-1,2-dihydrophosphete",N,FC1(I)C=CP1,"InChI=1S/C3H3FIP/c4-3(5)1-2-6-3/h1-2,6H",InChIKey=OAKAZLSXTGEMLH-UHFFFAOYSA-N,148.22,Pr,   148.22(BP est)    -30.23(MP est)      ----(BP exp)      ----(MP exp)  FC1(I)C=CP1 ,-30.23,Pred,N
C3H3FIP,FC1C(I)=CP1,9,6,11467,215.934,"2-fluoro-3-iodo-1,2-dihydrophosphete",N,FC1C(I)=CP1,"InChI=1S/C3H3FIP/c4-3-2(5)1-6-3/h1,3,6H",InChIKey=LRNFVITUJFVMTR-UHFFFAOYSA-N,157.91,Pr,   157.91(BP est)    -33.09(MP est)      ----(BP exp)      ----(MP exp)  FC1C(I)=CP1 ,-33.09,Pred,N
C3H3FIP,FC1C=C(I)P1,9,6,11468,215.934,"2-fluoro-4-iodo-1,2-dihydrophosphete",N,FC1C=C(I)P1,"InChI=1S/C3H3FIP/c4-2-1-3(5)6-2/h1-2,6H",InChIKey=QFHWCCCZOXAKPK-UHFFFAOYSA-N,157.91,Pr,   157.91(BP est)    -33.09(MP est)      ----(BP exp)      ----(MP exp)  FC1C=C(I)P1 ,-33.09,Pred,N
C3H3FIP,IC1C(F)=CP1,9,6,11469,215.934,"3-fluoro-2-iodo-1,2-dihydrophosphete",N,IC1C(F)=CP1,"InChI=1S/C3H3FIP/c4-2-1-6-3(2)5/h1,3,6H",InChIKey=WICODERISCTNJW-UHFFFAOYSA-N,157.91,Pr,   157.91(BP est)    -33.09(MP est)      ----(BP exp)      ----(MP exp)  IC1C(F)=CP1 ,-33.09,Pred,N
C3H3FIP,IC1=C(CP1)F,9,6,11470,215.934,"3-fluoro-4-iodo-1,2-dihydrophosphete",N,IC1=C(CP1)F,"InChI=1S/C3H3FIP/c4-2-1-6-3(2)5/h6H,1H2",InChIKey=GHQITJLHDNJTNK-UHFFFAOYSA-N,162.33,Pr,   162.33(BP est)    -23.42(MP est)      ----(BP exp)      ----(MP exp)  IC1=C(CP1)F ,-23.42,Pred,N