Formula,SMILES,Tot_atoms,Tot_nH_atoms,Dataset_no,Molecular_weight,IUPAC_chemname,Metalloid,EPISUITE,InChI_Code,InChI_Key,Boiling_Point,BP_basis,EPIsuite_output,MP,Basis,Life
C3H10P2,CP(C)CP,15,5,5042,108.061,dimethyl(phosphaneylmethyl)phosphane,N,CP(C)CP,"InChI=1S/C3H10P2/c1-5(2)3-4/h3-4H2,1-2H3",InChIKey=MSRKCBXOAVTDSL-UHFFFAOYSA-N,102.1,Pr,   102.10(BP est)    -79.32(MP est)      ----(BP exp)      ----(MP exp)  CP(C)CP ,-79.32,Pred,N
C3H10P2,CC(C)(P)P,15,5,5043,108.061,"propane-2,2-diylbis(phosphane)",N,CC(C)(P)P,"InChI=1S/C3H10P2/c1-3(2,4)5/h4-5H2,1-2H3",InChIKey=PANKGCGFRQKGCF-UHFFFAOYSA-N,97.77,Pr,    97.77(BP est)    -70.50(MP est)      ----(BP exp)      ----(MP exp)  CC(C)(P)P ,-70.5,Pred,N
C3H9PS,CCSPC,14,5,5079,108.139,(ethylthio)(methyl)phosphane,N,CCSPC,"InChI=1S/C3H9PS/c1-3-5-4-2/h4H,3H2,1-2H3",InChIKey=GKSSJJONAVFGBN-UHFFFAOYSA-N,109.08,Pr,   109.08(BP est)    -75.08(MP est)      ----(BP exp)      ----(MP exp)  CCSPC ,-75.08,Pred,N
C3H9PS,S=P(C)(C)C,14,5,5080,108.139,trimethylphosphine sulfide,N,S=P(C)(C)C,"InChI=1S/C3H9PS/c1-4(2,3)5/h1-3H3",InChIKey=KTFAZNVGJUIWJM-UHFFFAOYSA-N,97.03,Pr,    97.03(BP est)   -146.48(MP est)      ----(BP exp)      ----(MP exp)  S=P(C)(C)C ,-146.48,Pred,N
C2H2ClOP,O=PC(Cl)=C,7,5,5125,108.461,(1-chlorovinyl)(oxo)phosphane,N,O=PC(Cl)=C,InChI=1S/C2H2ClOP/c1-2(3)5-4/h1H2,InChIKey=KCEMNDQCXBIZAV-UHFFFAOYSA-N,112.19,Pr,   112.19(BP est)    -64.22(MP est)      ----(BP exp)      ----(MP exp)  O=PC(Cl)=C ,-64.22,Pred,N
C2H2ClOP,O=PC=CCl,7,5,5126,108.461,(2-chlorovinyl)(oxo)phosphane,N,O=PC=CCl,InChI=1S/C2H2ClOP/c3-1-2-5-4/h1-2H,InChIKey=DGLQNYWUOYVLSS-UHFFFAOYSA-N,127.44,Pr,   127.44(BP est)    -54.45(MP est)      ----(BP exp)      ----(MP exp)  O=PC=CCl ,-54.45,Pred,N
C3H6ClP,ClC(P)C=C,11,5,5137,108.505,(1-chloroallyl)phosphane,N,ClC(P)C=C,"InChI=1S/C3H6ClP/c1-2-3(4)5/h2-3H,1,5H2",InChIKey=YEMPHBMCARLASU-UHFFFAOYSA-N,95.87,Pr,    95.87(BP est)    -81.37(MP est)      ----(BP exp)      ----(MP exp)  ClC(P)C=C ,-81.37,Pred,N
C3H6ClP,ClC1(P)CC1,11,5,5138,108.505,(1-chlorocyclopropyl)phosphane,N,ClC1(P)CC1,"InChI=1S/C3H6ClP/c4-3(5)1-2-3/h1-2,5H2",InChIKey=ICDIFMVHMYDBCS-UHFFFAOYSA-N,90.42,Pr,    90.42(BP est)    -53.66(MP est)      ----(BP exp)      ----(MP exp)  ClC1(P)CC1 ,-53.66,Pred,N
C3H6ClP,CPC(Cl)=C,11,5,5139,108.505,(1-chlorovinyl)(methyl)phosphane,N,CPC(Cl)=C,"InChI=1S/C3H6ClP/c1-3(4)5-2/h5H,1H2,2H3",InChIKey=RXPNIBIZQPTFDK-UHFFFAOYSA-N,67.15,Pr,    67.15(BP est)    -97.42(MP est)      ----(BP exp)      ----(MP exp)  CPC(Cl)=C ,-97.42,Pred,N
C3H6ClP,ClC(CP)=C,11,5,5140,108.505,(2-chloroallyl)phosphane,N,ClC(CP)=C,"InChI=1S/C3H6ClP/c1-3(4)2-5/h1-2,5H2",InChIKey=OQCSSJDXYGGBKV-UHFFFAOYSA-N,88.5,Pr,    88.50(BP est)    -83.00(MP est)      ----(BP exp)      ----(MP exp)  ClC(CP)=C ,-83,Pred,N
C3H6ClP,ClC1C(P)C1,11,5,5141,108.505,(2-chlorocyclopropyl)phosphane,N,ClC1C(P)C1,"InChI=1S/C3H6ClP/c4-2-1-3(2)5/h2-3H,1,5H2",InChIKey=JCDCFQRHEPGZFF-UHFFFAOYSA-N,109.21,Pr,   109.21(BP est)    -62.25(MP est)      ----(BP exp)      ----(MP exp)  ClC1C(P)C1 ,-62.25,Pred,N
C3H6ClP,CPC=CCl,11,5,5142,108.505,(2-chlorovinyl)(methyl)phosphane,N,CPC=CCl,"InChI=1S/C3H6ClP/c1-5-3-2-4/h2-3,5H,1H3",InChIKey=GQNYPOBQQQYMOR-UHFFFAOYSA-N,83.5,Pr,    83.50(BP est)    -87.33(MP est)      ----(BP exp)      ----(MP exp)  CPC=CCl ,-87.33,Pred,N
C3H6ClP,ClC=CCP,11,5,5143,108.505,(3-chloroallyl)phosphane,N,ClC=CCP,"InChI=1S/C3H6ClP/c4-2-1-3-5/h1-2H,3,5H2",InChIKey=KBIQUNULNDNZNI-UHFFFAOYSA-N,104.34,Pr,   104.34(BP est)    -73.06(MP est)      ----(BP exp)      ----(MP exp)  ClC=CCP ,-73.06,Pred,N
C3H6ClP,ClCPC=C,11,5,5144,108.505,(chloromethyl)(vinyl)phosphane,N,ClCPC=C,"InChI=1S/C3H6ClP/c1-2-5-3-4/h2,5H,1,3H2",InChIKey=ZPUOXLBFEZHJCT-UHFFFAOYSA-N,102.83,Pr,   102.83(BP est)    -80.03(MP est)      ----(BP exp)      ----(MP exp)  ClCPC=C ,-80.03,Pred,N
C3H6ClP,ClCP1CC1,11,5,5145,108.505,1-(chloromethyl)phosphirane,N,ClCP1CC1,InChI=1S/C3H6ClP/c4-3-5-1-2-5/h1-3H2,InChIKey=AGGZHQPCPTXRTK-UHFFFAOYSA-N,114.28,Pr,   114.28(BP est)    -63.64(MP est)      ----(BP exp)      ----(MP exp)  ClCP1CC1 ,-63.64,Pred,N
C3H6ClP,CP1C(Cl)C1,11,5,5146,108.505,2-chloro-1-methylphosphirane,N,CP1C(Cl)C1,"InChI=1S/C3H6ClP/c1-5-2-3(5)4/h3H,2H2,1H3",InChIKey=RLIBZIOWNQSFQT-UHFFFAOYSA-N,94.34,Pr,    94.34(BP est)    -71.58(MP est)      ----(BP exp)      ----(MP exp)  CP1C(Cl)C1 ,-71.58,Pred,N
C3H6ClP,ClC1CCP1,11,5,5147,108.505,2-chlorophosphetane,N,ClC1CCP1,"InChI=1S/C3H6ClP/c4-3-1-2-5-3/h3,5H,1-2H2",InChIKey=IMQKBMRQFNMCRQ-UHFFFAOYSA-N,95.59,Pr,    95.59(BP est)    -72.29(MP est)      ----(BP exp)      ----(MP exp)  ClC1CCP1 ,-72.29,Pred,N
C3H6ClP,ClC1CPC1,11,5,5148,108.505,3-chlorophosphetane,N,ClC1CPC1,"InChI=1S/C3H6ClP/c4-3-1-5-2-3/h3,5H,1-2H2",InChIKey=ZOGLVMOAZCPDCL-UHFFFAOYSA-N,95.59,Pr,    95.59(BP est)    -72.29(MP est)      ----(BP exp)      ----(MP exp)  ClC1CPC1 ,-72.29,Pred,N
C2H7OPS,CP(C)(O)=S,12,5,5381,110.111,dimethylphosphinothioic O-acid,N,CP(C)(O)=S,"InChI=1S/C2H7OPS/c1-4(2,3)5/h1-2H3,(H,3,5)",InChIKey=DQIMSUZRBYLFOT-UHFFFAOYSA-N,175.56,Pr,   175.56(BP est)    -98.78(MP est)      ----(BP exp)      ----(MP exp)  CP(C)(O)=S ,-98.78,Pred,N
C2H4ClOP,O=PC(Cl)C,9,5,5419,110.477,(1-chloroethyl)(oxo)phosphane,N,O=PC(Cl)C,"InChI=1S/C2H4ClOP/c1-2(3)5-4/h2H,1H3",InChIKey=BFXJFBNFXFFVOD-UHFFFAOYSA-N,121.03,Pr,   121.03(BP est)    -61.28(MP est)      ----(BP exp)      ----(MP exp)  O=PC(Cl)C ,-61.28,Pred,N
C2H4ClOP,O=PCCCl,9,5,5421,110.477,(2-chloroethyl)(oxo)phosphane,N,O=PCCCl,InChI=1S/C2H4ClOP/c3-1-2-5-4/h1-2H2,InChIKey=ORLNWNBHBDCKNS-UHFFFAOYSA-N,147.1,Pr,   147.10(BP est)    -46.17(MP est)      ----(BP exp)      ----(MP exp)  O=PCCCl ,-46.17,Pred,N
C2H4ClOP,O=P1C(Cl)C1,9,5,5424,110.477,2-chlorophosphirane 1-oxide,N,O=P1C(Cl)C1,"InChI=1S/C2H4ClOP/c3-2-1-5(2)4/h2,5H,1H2",InChIKey=UUJPMKRGTPYBJG-UHFFFAOYSA-N,134.54,Pr,   134.54(BP est)    -47.29(MP est)      ----(BP exp)      ----(MP exp)  O=P1C(Cl)C1 ,-47.29,Pred,N
C3H8ClP,CPC(C)Cl,13,5,5471,110.521,(1-chloroethyl)(methyl)phosphane,N,CPC(C)Cl,"InChI=1S/C3H8ClP/c1-3(4)5-2/h3,5H,1-2H3",InChIKey=OLQGSNKNSFXXBX-UHFFFAOYSA-N,76.62,Pr,    76.62(BP est)    -94.30(MP est)      ----(BP exp)      ----(MP exp)  CPC(C)Cl ,-94.3,Pred,N
C3H8ClP,CC(P)CCl,13,5,5472,110.521,(1-chloropropan-2-yl)phosphane,N,CC(P)CCl,"InChI=1S/C3H8ClP/c1-3(5)2-4/h3H,2,5H2,1H3",InChIKey=IZDRZPGGUYBPMT-UHFFFAOYSA-N,110.7,Pr,   110.70(BP est)    -76.16(MP est)      ----(BP exp)      ----(MP exp)  CC(P)CCl ,-76.16,Pred,N
C3H8ClP,ClC(P)CC,13,5,5473,110.521,(1-chloropropyl)phosphane,N,ClC(P)CC,"InChI=1S/C3H8ClP/c1-2-3(4)5/h3H,2,5H2,1H3",InChIKey=DRNQIDNYXOXDKF-UHFFFAOYSA-N,97.67,Pr,    97.67(BP est)    -79.97(MP est)      ----(BP exp)      ----(MP exp)  ClC(P)CC ,-79.97,Pred,N
C3H8ClP,CPCCCl,13,5,5474,110.521,(2-chloroethyl)(methyl)phosphane,N,CPCCCl,"InChI=1S/C3H8ClP/c1-5-3-2-4/h5H,2-3H2,1H3",InChIKey=LVUMYGLFKSJUEH-UHFFFAOYSA-N,104.61,Pr,   104.61(BP est)    -78.62(MP est)      ----(BP exp)      ----(MP exp)  CPCCCl ,-78.62,Pred,N
C3H8ClP,ClC(C)(P)C,13,5,5475,110.521,(2-chloropropan-2-yl)phosphane,N,ClC(C)(P)C,"InChI=1S/C3H8ClP/c1-3(2,4)5/h5H2,1-2H3",InChIKey=NLUNRAJTDUAGTM-UHFFFAOYSA-N,74.59,Pr,    74.59(BP est)    -77.99(MP est)      ----(BP exp)      ----(MP exp)  ClC(C)(P)C ,-77.99,Pred,N
C3H8ClP,ClC(C)CP,13,5,5476,110.521,(2-chloropropyl)phosphane,N,ClC(C)CP,"InChI=1S/C3H8ClP/c1-3(4)2-5/h3H,2,5H2,1H3",InChIKey=NXUHFQBFEYFKII-UHFFFAOYSA-N,97.67,Pr,    97.67(BP est)    -79.97(MP est)      ----(BP exp)      ----(MP exp)  ClC(C)CP ,-79.97,Pred,N
C3H8ClP,ClCCCP,13,5,5477,110.521,(3-chloropropyl)phosphane,N,ClCCCP,"InChI=1S/C3H8ClP/c4-2-1-3-5/h1-3,5H2",InChIKey=PTKUMHCGCMXGAD-UHFFFAOYSA-N,124.77,Pr,   124.77(BP est)    -64.55(MP est)      ----(BP exp)      ----(MP exp)  ClCCCP ,-64.55,Pred,N
C3H8ClP,ClCPCC,13,5,5478,110.521,(chloromethyl)(ethyl)phosphane,N,ClCPCC,"InChI=1S/C3H8ClP/c1-2-5-3-4/h5H,2-3H2,1H3",InChIKey=KTEDSZVHEOJQOR-UHFFFAOYSA-N,104.61,Pr,   104.61(BP est)    -78.62(MP est)      ----(BP exp)      ----(MP exp)  ClCPCC ,-78.62,Pred,N
C3H8ClP,CP(CCl)C,13,5,5479,110.521,(chloromethyl)dimethylphosphane,N,CP(CCl)C,"InChI=1S/C3H8ClP/c1-5(2)3-4/h3H2,1-2H3",InChIKey=JWVKOMNJXQMOFH-UHFFFAOYSA-N,105.57,Pr,   105.57(BP est)    -79.03(MP est)      ----(BP exp)      ----(MP exp)  CP(CCl)C ,-79.03,Pred,N
H6N3PS,NP(N)(N)=S,11,5,5526,111.103,phosphorothioic triamide,N,NP(N)(N)=S,"InChI=1S/H6N3PS/c1-4(2,3)5/h(H6,1,2,3,5)",InChIKey=JLYVRXJEQTZZBE-UHFFFAOYSA-N,209.1231329,Pr,   480.00(BP est)     90.27(MP est)      ----(BP exp)      ----(MP exp)  NP(N)(N)=S ,90.27,Pred,N
CH5O2PS,CP(=S)(O)O,10,5,5599,112.083,"methylphosphonothioic O,O-acid",N,CP(=S)(O)O,"InChI=1S/CH5O2PS/c1-4(2,3)5/h1H3,(H2,2,3,5)",InChIKey=WXJXBKBJAKPJRN-UHFFFAOYSA-N,243.14,Pr,   243.14(BP est)    -54.28(MP est)      ----(BP exp)      ----(MP exp)  CP(=S)(O)O ,-54.28,Pred,N
H5N2OPS,NP(N)(O)=S,10,5,5600,112.087,phosphorodiamidothioic O-acid,N,NP(N)(O)=S,"InChI=1S/H5N2OPS/c1-4(2,3)5/h(H5,1,2,3,5)",InChIKey=JADWVLYMWVNVAN-UHFFFAOYSA-N,185.5643863,Pr,   480.00(BP est)     90.27(MP est)      ----(BP exp)      ----(MP exp)  NP(N)(O)=S ,90.27,Pred,N
C2H3ClFP,PC(Cl)=CF,8,5,5629,112.468,(1-chloro-2-fluorovinyl)phosphane,N,PC(Cl)=CF,"InChI=1S/C2H3ClFP/c3-2(5)1-4/h1H,5H2",InChIKey=HFMVGYLMPSLGGI-UHFFFAOYSA-N,75.67,Pr,    75.67(BP est)    -93.75(MP est)      ----(BP exp)      ----(MP exp)  PC(Cl)=CF ,-93.75,Pred,N
C2H3ClFP,PC(F)=CCl,8,5,5630,112.468,(2-chloro-1-fluorovinyl)phosphane,N,PC(F)=CCl,"InChI=1S/C2H3ClFP/c3-1-2(4)5/h1H,5H2",InChIKey=FJOCGLPQFIAQIL-UHFFFAOYSA-N,75.67,Pr,    75.67(BP est)    -93.75(MP est)      ----(BP exp)      ----(MP exp)  PC(F)=CCl ,-93.75,Pred,N
C2H3ClFP,PC=C(Cl)F,8,5,5631,112.468,(2-chloro-2-fluorovinyl)phosphane,N,PC=C(Cl)F,"InChI=1S/C2H3ClFP/c3-2(4)1-5/h1H,5H2",InChIKey=LPGNYKMMYIPINH-UHFFFAOYSA-N,75.67,Pr,    75.67(BP est)    -93.75(MP est)      ----(BP exp)      ----(MP exp)  PC=C(Cl)F ,-93.75,Pred,N
C2H3ClFP,ClC1(F)CP1,8,5,5632,112.468,2-chloro-2-fluorophosphirane,N,ClC1(F)CP1,"InChI=1S/C2H3ClFP/c3-2(4)1-5-2/h5H,1H2",InChIKey=KYEUBUYIUMIDMY-UHFFFAOYSA-N,43.69,Pr,    43.69(BP est)    -79.07(MP est)      ----(BP exp)      ----(MP exp)  ClC1(F)CP1 ,-79.07,Pred,N
C2H3ClFP,ClC1C(F)P1,8,5,5633,112.468,2-chloro-3-fluorophosphirane,N,ClC1C(F)P1,"InChI=1S/C2H3ClFP/c3-1-2(4)5-1/h1-2,5H",InChIKey=SCMWMTAELJAZHS-UHFFFAOYSA-N,63.79,Pr,    63.79(BP est)    -87.27(MP est)      ----(BP exp)      ----(MP exp)  ClC1C(F)P1 ,-87.27,Pred,N
C2H6ClOP,ClCPOC,11,5,5638,112.493,(chloromethyl)(methoxy)phosphane,N,ClCPOC,"InChI=1S/C2H6ClOP/c1-4-5-2-3/h5H,2H2,1H3",InChIKey=DRYKZAMXDMOSMS-UHFFFAOYSA-N,105.54,Pr,   105.54(BP est)    -72.87(MP est)      ----(BP exp)      ----(MP exp)  ClCPOC ,-72.87,Pred,N
C2H6ClOP,O=P(C)CCl,11,5,5639,112.493,(chloromethyl)(methyl)phosphine oxide,N,O=P(C)CCl,"InChI=1S/C2H6ClOP/c1-5(4)2-3/h5H,2H2,1H3",InChIKey=ITGQBFSVHUKNGC-UHFFFAOYSA-N,145.05,Pr,   145.05(BP est)    -54.95(MP est)      ----(BP exp)      ----(MP exp)  O=P(C)CCl ,-54.95,Pred,N
H4NO2PS,S=P(O)(O)N,9,5,5698,113.071,"phosphoramidothioic O,O-acid",N,S=P(O)(O)N,"InChI=1S/H4NO2PS/c1-4(2,3)5/h(H4,1,2,3,5)",InChIKey=RJBIAAZJODIFHR-UHFFFAOYSA-N,214.8670641,Pr,   480.00(BP est)     90.27(MP est)      ----(BP exp)      ----(MP exp)  S=P(O)(O)N ,90.27,Pred,N
H3O3PS,S=P(O)(O)O,8,5,5737,114.055,"phosphorothioic O,O,O-acid",N,S=P(O)(O)O,"InChI=1S/H3O3PS/c1-4(2,3)5/h(H3,1,2,3,5)",InChIKey=RYYWUUFWQRZTIU-UHFFFAOYSA-N,217.1677085,Pr,   480.00(BP est)     90.27(MP est)      ----(BP exp)      ----(MP exp)  S=P(O)(O)O ,90.27,Pred,N
CHClFOP,O=PC(Cl)F,6,5,5746,114.44,(chlorofluoromethyl)(oxo)phosphane,N,O=PC(Cl)F,InChI=1S/CHClFOP/c2-1(3)5-4/h1H,InChIKey=ZYWUFDSEZQMHLH-UHFFFAOYSA-N,99.71,Pr,    99.71(BP est)    -72.85(MP est)      ----(BP exp)      ----(MP exp)  O=PC(Cl)F ,-72.85,Pred,N
CH4ClO2P,O=P(CCl)O,9,5,5747,114.465,(chloromethyl)phosphinic acid,N,O=P(CCl)O,"InChI=1S/CH4ClO2P/c2-1-5(3)4/h5H,1H2,(H,3,4)",InChIKey=AOASVTBKGBXGTN-UHFFFAOYSA-N,217.07,Pr,   217.07(BP est)     -9.15(MP est)      ----(BP exp)      ----(MP exp)  O=P(CCl)O ,-9.15,Pred,N
C2H5ClFP,PC(C)(Cl)F,10,5,5752,114.484,(1-chloro-1-fluoroethyl)phosphane,N,PC(C)(Cl)F,"InChI=1S/C2H5ClFP/c1-2(3,4)5/h5H2,1H3",InChIKey=AYVXKKLBWCYLBI-UHFFFAOYSA-N,51.7,Pr,    51.70(BP est)    -90.02(MP est)      ----(BP exp)      ----(MP exp)  PC(C)(Cl)F ,-90.02,Pred,N
C2H5ClFP,PC(Cl)CF,10,5,5753,114.484,(1-chloro-2-fluoroethyl)phosphane,N,PC(Cl)CF,"InChI=1S/C2H5ClFP/c3-2(5)1-4/h2H,1,5H2",InChIKey=ODKNYJGYYWQYHO-UHFFFAOYSA-N,75.55,Pr,    75.55(BP est)    -91.76(MP est)      ----(BP exp)      ----(MP exp)  PC(Cl)CF ,-91.76,Pred,N
C2H5ClFP,PC(F)CCl,10,5,5754,114.484,(2-chloro-1-fluoroethyl)phosphane,N,PC(F)CCl,"InChI=1S/C2H5ClFP/c3-1-2(4)5/h2H,1,5H2",InChIKey=WZOZJFAQWBPDBF-UHFFFAOYSA-N,89.02,Pr,    89.02(BP est)    -87.83(MP est)      ----(BP exp)      ----(MP exp)  PC(F)CCl ,-87.83,Pred,N
C2H5ClFP,PCC(Cl)F,10,5,5755,114.484,(2-chloro-2-fluoroethyl)phosphane,N,PCC(Cl)F,"InChI=1S/C2H5ClFP/c3-2(4)1-5/h2H,1,5H2",InChIKey=JFMQPEOIKGFDEN-UHFFFAOYSA-N,75.55,Pr,    75.55(BP est)    -91.76(MP est)      ----(BP exp)      ----(MP exp)  PCC(Cl)F ,-91.76,Pred,N
C2H5ClFP,CPC(Cl)F,10,5,5756,114.484,(chlorofluoromethyl)(methyl)phosphane,N,CPC(Cl)F,"InChI=1S/C2H5ClFP/c1-5-2(3)4/h2,5H,1H3",InChIKey=UAOQVCZZXLJZQD-UHFFFAOYSA-N,53.8,Pr,    53.80(BP est)   -106.30(MP est)      ----(BP exp)      ----(MP exp)  CPC(Cl)F ,-106.3,Pred,N
C2H5ClFP,ClCPCF,10,5,5757,114.484,(chloromethyl)(fluoromethyl)phosphane,N,ClCPCF,"InChI=1S/C2H5ClFP/c3-1-5-2-4/h5H,1-2H2",InChIKey=QQYXJOSXEDCOCQ-UHFFFAOYSA-N,82.73,Pr,    82.73(BP est)    -90.35(MP est)      ----(BP exp)      ----(MP exp)  ClCPCF ,-90.35,Pred,N
CH2ClF2P,PC(F)(Cl)F,7,5,5881,118.448,(chlorodifluoromethyl)phosphane,N,PC(F)(Cl)F,"InChI=1S/CH2ClF2P/c2-1(3,4)5/h5H2",InChIKey=USWCRWCJQJAQFQ-UHFFFAOYSA-N,28.08,Pr,    28.08(BP est)   -102.25(MP est)      ----(BP exp)      ----(MP exp)  PC(F)(Cl)F ,-102.25,Pred,N
C2H3Cl2P,PC(Cl)=CCl,8,5,6666,128.92,"(1,2-dichlorovinyl)phosphane",N,PC(Cl)=CCl,"InChI=1S/C2H3Cl2P/c3-1-2(4)5/h1H,5H2",InChIKey=NPYCDMQGVHCXNJ-UHFFFAOYSA-N,109.72,Pr,   109.72(BP est)    -69.14(MP est)      ----(BP exp)      ----(MP exp)  PC(Cl)=CCl ,-69.14,Pred,N
C2H3Cl2P,PC=C(Cl)Cl,8,5,6667,128.92,"(2,2-dichlorovinyl)phosphane",N,PC=C(Cl)Cl,"InChI=1S/C2H3Cl2P/c3-2(4)1-5/h1H,5H2",InChIKey=NFLBXEMHFUDAJI-UHFFFAOYSA-N,109.72,Pr,   109.72(BP est)    -69.14(MP est)      ----(BP exp)      ----(MP exp)  PC=C(Cl)Cl ,-69.14,Pred,N
C2H3Cl2P,ClC1(Cl)CP1,8,5,6668,128.92,"2,2-dichlorophosphirane",N,ClC1(Cl)CP1,"InChI=1S/C2H3Cl2P/c3-2(4)1-5-2/h5H,1H2",InChIKey=CTPIKMBQSVCCIF-UHFFFAOYSA-N,81.52,Pr,    81.52(BP est)    -53.36(MP est)      ----(BP exp)      ----(MP exp)  ClC1(Cl)CP1 ,-53.36,Pred,N
C2H3Cl2P,ClC1C(Cl)P1,8,5,6669,128.92,"2,3-dichlorophosphirane",N,ClC1C(Cl)P1,"InChI=1S/C2H3Cl2P/c3-1-2(4)5-1/h1-2,5H",InChIKey=LODWJJAJLMSDPW-UHFFFAOYSA-N,113.5,Pr,   113.50(BP est)    -58.09(MP est)      ----(BP exp)      ----(MP exp)  ClC1C(Cl)P1 ,-58.09,Pred,N
CHCl2OP,O=PC(Cl)Cl,6,5,6754,130.892,(dichloromethyl)(oxo)phosphane,N,O=PC(Cl)Cl,InChI=1S/CHCl2OP/c2-1(3)5-4/h1H,InChIKey=GIWIEXXLVIFJMV-UHFFFAOYSA-N,146.75,Pr,   146.75(BP est)    -44.45(MP est)      ----(BP exp)      ----(MP exp)  O=PC(Cl)Cl ,-44.45,Pred,N
C2H5Cl2P,ClC(C)(P)Cl,10,5,6759,130.936,"(1,1-dichloroethyl)phosphane",N,ClC(C)(P)Cl,"InChI=1S/C2H5Cl2P/c1-2(3,4)5/h5H2,1H3",InChIKey=PROKAKKREHUXMM-UHFFFAOYSA-N,89.12,Pr,    89.12(BP est)    -64.43(MP est)      ----(BP exp)      ----(MP exp)  ClC(C)(P)Cl ,-64.43,Pred,N
C2H5Cl2P,ClC(P)CCl,10,5,6760,130.936,"(1,2-dichloroethyl)phosphane",N,ClC(P)CCl,"InChI=1S/C2H5Cl2P/c3-1-2(4)5/h2H,1,5H2",InChIKey=IBZACBZNZVBALS-UHFFFAOYSA-N,136.87,Pr,   136.87(BP est)    -59.20(MP est)      ----(BP exp)      ----(MP exp)  ClC(P)CCl ,-59.2,Pred,N
C2H5Cl2P,ClC(Cl)CP,10,5,6761,130.936,"(2,2-dichloroethyl)phosphane",N,ClC(Cl)CP,"InChI=1S/C2H5Cl2P/c3-2(4)1-5/h2H,1,5H2",InChIKey=AJZYRHXRWZWBAH-UHFFFAOYSA-N,124.4,Pr,   124.40(BP est)    -62.84(MP est)      ----(BP exp)      ----(MP exp)  ClC(Cl)CP ,-62.84,Pred,N
C2H5Cl2P,CPC(Cl)Cl,10,5,6762,130.936,(dichloromethyl)(methyl)phosphane,N,CPC(Cl)Cl,"InChI=1S/C2H5Cl2P/c1-5-2(3)4/h2,5H,1H3",InChIKey=OPEBTELFKZTHOJ-UHFFFAOYSA-N,104.23,Pr,   104.23(BP est)    -76.91(MP est)      ----(BP exp)      ----(MP exp)  CPC(Cl)Cl ,-76.91,Pred,N
C2H5Cl2P,ClCPCCl,10,5,6763,130.936,bis(chloromethyl)phosphane,N,ClCPCCl,"InChI=1S/C2H5Cl2P/c3-1-5-2-4/h5H,1-2H2",InChIKey=MZPXNZTWCDITTG-UHFFFAOYSA-N,143.37,Pr,   143.37(BP est)    -57.98(MP est)      ----(BP exp)      ----(MP exp)  ClCPCCl ,-57.98,Pred,N
CH2Cl2FP,PC(F)(Cl)Cl,7,5,6879,134.899,(dichlorofluoromethyl)phosphane,N,PC(F)(Cl)Cl,"InChI=1S/CH2Cl2FP/c2-1(3,4)5/h5H2",InChIKey=NSCUMNQDPXTLBC-UHFFFAOYSA-N,66.71,Pr,    66.71(BP est)    -76.31(MP est)      ----(BP exp)      ----(MP exp)  PC(F)(Cl)Cl ,-76.31,Pred,N
C2BrOP,O=PC#CBr,5,5,7684,150.899,(bromoethynyl)(oxo)phosphane,N,O=PC#CBr,InChI=1S/C2BrOP/c3-1-2-5-4,InChIKey=NEAZSPGJUYOCTC-UHFFFAOYSA-N,174.92,Pr,   174.92(BP est)     29.94(MP est)      ----(BP exp)      ----(MP exp)  O=PC#CBr ,29.94,Pred,N
C3H4BrP,BrC(P)C#C,9,5,7685,150.943,(1-bromoprop-2-yn-1-yl)phosphane,N,BrC(P)C#C,"InChI=1S/C3H4BrP/c1-2-3(4)5/h1,3H,5H2",InChIKey=CGHXUHUMIJXYNL-UHFFFAOYSA-N,131.92,Pr,   131.92(BP est)    -31.54(MP est)      ----(BP exp)      ----(MP exp)  BrC(P)C#C ,-31.54,Pred,N
C3H4BrP,PCC#CBr,9,5,7686,150.943,(3-bromoprop-2-yn-1-yl)phosphane,N,PCC#CBr,"InChI=1S/C3H4BrP/c4-2-1-3-5/h3,5H2",InChIKey=IALHMZCNCWBNKT-UHFFFAOYSA-N,153.74,Pr,   153.74(BP est)     11.89(MP est)      ----(BP exp)      ----(MP exp)  PCC#CBr ,11.89,Pred,N
C3H4BrP,CPC#CBr,9,5,7687,150.943,(bromoethynyl)(methyl)phosphane,N,CPC#CBr,"InChI=1S/C3H4BrP/c1-5-3-2-4/h5H,1H3",InChIKey=YGZQSFILOVBLKS-UHFFFAOYSA-N,134.58,Pr,   134.58(BP est)     -1.89(MP est)      ----(BP exp)      ----(MP exp)  CPC#CBr ,-1.89,Pred,N
C3H4BrP,BrCPC#C,9,5,7688,150.943,(bromomethyl)(ethynyl)phosphane,N,BrCPC#C,"InChI=1S/C3H4BrP/c1-2-5-3-4/h1,5H,3H2",InChIKey=WJRQOKXFDPALHU-UHFFFAOYSA-N,126.05,Pr,   126.05(BP est)    -33.94(MP est)      ----(BP exp)      ----(MP exp)  BrCPC#C ,-33.94,Pred,N
C3H4BrP,BrC1C=CP1,9,5,7689,150.943,"2-bromo-1,2-dihydrophosphete",N,BrC1C=CP1,"InChI=1S/C3H4BrP/c4-3-1-2-5-3/h1-3,5H",InChIKey=UJRSCJWUJXSWHY-UHFFFAOYSA-N,124.91,Pr,   124.91(BP est)    -48.41(MP est)      ----(BP exp)      ----(MP exp)  BrC1C=CP1 ,-48.41,Pred,N
C3H4BrP,BrC1=CPC1,9,5,7690,150.943,"3-bromo-1,2-dihydrophosphete",N,BrC1=CPC1,"InChI=1S/C3H4BrP/c4-3-1-5-2-3/h1,5H,2H2",InChIKey=ZVHZGYMJPIGMLF-UHFFFAOYSA-N,129.59,Pr,   129.59(BP est)    -38.66(MP est)      ----(BP exp)      ----(MP exp)  BrC1=CPC1 ,-38.66,Pred,N
C3H4BrP,BrC1=CCP1,9,5,7691,150.943,"4-bromo-1,2-dihydrophosphete",N,BrC1=CCP1,"InChI=1S/C3H4BrP/c4-3-1-2-5-3/h1,5H,2H2",InChIKey=NPRSVWNAMQRVPL-UHFFFAOYSA-N,129.59,Pr,   129.59(BP est)    -38.66(MP est)      ----(BP exp)      ----(MP exp)  BrC1=CCP1 ,-38.66,Pred,N
CH2Cl3P,ClC(Cl)(P)Cl,7,5,7818,151.351,(trichloromethyl)phosphane,N,ClC(Cl)(P)Cl,"InChI=1S/CH2Cl3P/c2-1(3,4)5/h5H2",InChIKey=NYOFJAZWVKPEFD-UHFFFAOYSA-N,103.34,Pr,   103.34(BP est)    -50.95(MP est)      ----(BP exp)      ----(MP exp)  ClC(Cl)(P)Cl ,-50.95,Pred,N
C2H2BrOP,O=PC(Br)=C,7,5,7903,152.915,(1-bromovinyl)(oxo)phosphane,N,O=PC(Br)=C,InChI=1S/C2H2BrOP/c1-2(3)5-4/h1H2,InChIKey=AGIFHHCUCDOMGS-UHFFFAOYSA-N,151.87,Pr,   151.87(BP est)    -37.70(MP est)      ----(BP exp)      ----(MP exp)  O=PC(Br)=C ,-37.7,Pred,N
C2H2BrOP,O=PC=CBr,7,5,7904,152.915,(2-bromovinyl)(oxo)phosphane,N,O=PC=CBr,InChI=1S/C2H2BrOP/c3-1-2-5-4/h1-2H,InChIKey=TWHZIOSKNZNOMY-UHFFFAOYSA-N,166.09,Pr,   166.09(BP est)    -28.22(MP est)      ----(BP exp)      ----(MP exp)  O=PC=CBr ,-28.22,Pred,N
C3H6BrP,BrC(P)C=C,11,5,7915,152.959,(1-bromoallyl)phosphane,N,BrC(P)C=C,"InChI=1S/C3H6BrP/c1-2-3(4)5/h2-3H,1,5H2",InChIKey=IBELAXPGZMCGHW-UHFFFAOYSA-N,122.14,Pr,   122.14(BP est)    -58.76(MP est)      ----(BP exp)      ----(MP exp)  BrC(P)C=C ,-58.76,Pred,N