Formula,SMILES,Tot_atoms,Tot_nH_atoms,Dataset_no,Molecular_weight,IUPAC_chemname,Metalloid,EPISUITE,InChI_Code,InChI_Key,Boiling_Point,BP_basis,EPIsuite_output,MP,Basis,Life
C3H7Cl2P,ClC(PCC)Cl,13,6,7235,144.963,(dichloromethyl)(ethyl)phosphane,N,ClC(PCC)Cl,"InChI=1S/C3H7Cl2P/c1-2-6-3(4)5/h3,6H,2H2,1H3",InChIKey=WWDNFOSPCSNRPV-UHFFFAOYSA-N,127.64,Pr,   127.64(BP est)    -64.44(MP est)      ----(BP exp)      ----(MP exp)  ClC(PCC)Cl ,-64.44,Pred,N
C3H7Cl2P,CP(C(Cl)Cl)C,13,6,7236,144.963,(dichloromethyl)dimethylphosphane,N,CP(C(Cl)Cl)C,"InChI=1S/C3H7Cl2P/c1-6(2)3(4)5/h3H,1-2H3",InChIKey=WWCDSZBHNKXUIE-UHFFFAOYSA-N,128.56,Pr,   128.56(BP est)    -64.86(MP est)      ----(BP exp)      ----(MP exp)  CP(C(Cl)Cl)C ,-64.86,Pred,N
C3H7Cl2P,CP(CCl)CCl,13,6,7237,144.963,bis(chloromethyl)(methyl)phosphane,N,CP(CCl)CCl,"InChI=1S/C3H7Cl2P/c1-6(2-4)3-5/h2-3H2,1H3",InChIKey=PQXQVNMMFSQZSY-UHFFFAOYSA-N,166.11,Pr,   166.11(BP est)    -46.39(MP est)      ----(BP exp)      ----(MP exp)  CP(CCl)CCl ,-46.39,Pred,N
C2H2Cl2FP,PC(Cl)=C(Cl)F,8,6,7330,146.91,"(1,2-dichloro-2-fluorovinyl)phosphane",N,PC(Cl)=C(Cl)F,InChI=1S/C2H2Cl2FP/c3-1(5)2(4)6/h6H2,InChIKey=ZLVKNMJGMDWOKM-UHFFFAOYSA-N,105.57,Pr,   105.57(BP est)    -77.04(MP est)      ----(BP exp)      ----(MP exp)  PC(Cl)=C(Cl)F ,-77.04,Pred,N
C2H2Cl2FP,PC(F)=C(Cl)Cl,8,6,7331,146.91,"(2,2-dichloro-1-fluorovinyl)phosphane",N,PC(F)=C(Cl)Cl,InChI=1S/C2H2Cl2FP/c3-1(4)2(5)6/h6H2,InChIKey=NBXCYWYPPMYGPA-UHFFFAOYSA-N,105.57,Pr,   105.57(BP est)    -77.04(MP est)      ----(BP exp)      ----(MP exp)  PC(F)=C(Cl)Cl ,-77.04,Pred,N
C2H2Cl2FP,FC1C(Cl)(Cl)P1,8,6,7332,146.91,"2,2-dichloro-3-fluorophosphirane",N,FC1C(Cl)(Cl)P1,"InChI=1S/C2H2Cl2FP/c3-2(4)1(5)6-2/h1,6H",InChIKey=WRFZGAUDRCGPPF-UHFFFAOYSA-N,76.76,Pr,    76.76(BP est)    -56.57(MP est)      ----(BP exp)      ----(MP exp)  FC1C(Cl)(Cl)P1 ,-56.57,Pred,N
C2H2Cl2FP,ClC1C(F)(Cl)P1,8,6,7333,146.91,"2,3-dichloro-2-fluorophosphirane",N,ClC1C(F)(Cl)P1,"InChI=1S/C2H2Cl2FP/c3-1-2(4,5)6-1/h1,6H",InChIKey=ASRGPDKMTBIWJM-UHFFFAOYSA-N,90.17,Pr,    90.17(BP est)    -52.66(MP est)      ----(BP exp)      ----(MP exp)  ClC1C(F)(Cl)P1 ,-52.66,Pred,N
C2H5Cl2OP,ClC(POC)Cl,11,6,7339,146.935,(dichloromethyl)(methoxy)phosphane,N,ClC(POC)Cl,"InChI=1S/C2H5Cl2OP/c1-5-6-2(3)4/h2,6H,1H3",InChIKey=IQCNPEFNRPCVKQ-UHFFFAOYSA-N,128.53,Pr,   128.53(BP est)    -58.70(MP est)      ----(BP exp)      ----(MP exp)  ClC(POC)Cl ,-58.7,Pred,N
C2H5Cl2OP,O=P(C)C(Cl)Cl,11,6,7340,146.935,(dichloromethyl)(methyl)phosphine oxide,N,O=P(C)C(Cl)Cl,"InChI=1S/C2H5Cl2OP/c1-6(5)2(3)4/h2,6H,1H3",InChIKey=WBCYBULFQVKALK-UHFFFAOYSA-N,166.52,Pr,   166.52(BP est)    -41.23(MP est)      ----(BP exp)      ----(MP exp)  O=P(C)C(Cl)Cl ,-41.23,Pred,N
C2H5Cl2OP,O=P(CCl)CCl,11,6,7342,146.935,bis(chloromethyl)phosphine oxide,N,O=P(CCl)CCl,"InChI=1S/C2H5Cl2OP/c3-1-6(5)2-4/h6H,1-2H2",InChIKey=OICYTSXWEQDLPB-UHFFFAOYSA-N,201.44,Pr,   201.44(BP est)    -23.53(MP est)      ----(BP exp)      ----(MP exp)  O=P(CCl)CCl ,-23.53,Pred,N
CCl2FOP,O=PC(F)(Cl)Cl,6,6,7483,148.882,(dichlorofluoromethyl)(oxo)phosphane,N,O=PC(F)(Cl)Cl,"InChI=1S/CCl2FOP/c2-1(3,4)6-5",InChIKey=BXGVZFPRZRSLNB-UHFFFAOYSA-N,115.09,Pr,   115.09(BP est)    -44.69(MP est)      ----(BP exp)      ----(MP exp)  O=PC(F)(Cl)Cl ,-44.69,Pred,N
CH3Cl2O2P,O=P(C(Cl)Cl)O,9,6,7484,148.907,(dichloromethyl)phosphinic acid,N,O=P(C(Cl)Cl)O,"InChI=1S/CH3Cl2O2P/c2-1(3)6(4)5/h1,6H,(H,4,5)",InChIKey=HNIUKPPQZMVBHX-UHFFFAOYSA-N,235.44,Pr,   235.44(BP est)      3.67(MP est)      ----(BP exp)      ----(MP exp)  O=P(C(Cl)Cl)O ,3.67,Pred,N
C2H4Cl2FP,PC(CF)(Cl)Cl,10,6,7487,148.926,"(1,1-dichloro-2-fluoroethyl)phosphane",N,PC(CF)(Cl)Cl,"InChI=1S/C2H4Cl2FP/c3-2(4,6)1-5/h1,6H2",InChIKey=CXIYEDQQOSHUJK-UHFFFAOYSA-N,91.51,Pr,    91.51(BP est)    -63.43(MP est)      ----(BP exp)      ----(MP exp)  PC(CF)(Cl)Cl ,-63.43,Pred,N
C2H4Cl2FP,PC(CCl)(Cl)F,10,6,7488,148.926,"(1,2-dichloro-1-fluoroethyl)phosphane",N,PC(CCl)(Cl)F,"InChI=1S/C2H4Cl2FP/c3-1-2(4,5)6/h1,6H2",InChIKey=YYLJTPTXWFREGW-UHFFFAOYSA-N,117.51,Pr,   117.51(BP est)    -55.84(MP est)      ----(BP exp)      ----(MP exp)  PC(CCl)(Cl)F ,-55.84,Pred,N
C2H4Cl2FP,PC(Cl)C(Cl)F,10,6,7489,148.926,"(1,2-dichloro-2-fluoroethyl)phosphane",N,PC(Cl)C(Cl)F,"InChI=1S/C2H4Cl2FP/c3-1(5)2(4)6/h1-2H,6H2",InChIKey=GNEHSWJBRXANCG-UHFFFAOYSA-N,112.63,Pr,   112.63(BP est)    -73.48(MP est)      ----(BP exp)      ----(MP exp)  PC(Cl)C(Cl)F ,-73.48,Pred,N
C2H4Cl2FP,PC(F)C(Cl)Cl,10,6,7490,148.926,"(2,2-dichloro-1-fluoroethyl)phosphane",N,PC(F)C(Cl)Cl,"InChI=1S/C2H4Cl2FP/c3-1(4)2(5)6/h1-2H,6H2",InChIKey=CDUKBMNSEFAMMZ-UHFFFAOYSA-N,112.63,Pr,   112.63(BP est)    -73.48(MP est)      ----(BP exp)      ----(MP exp)  PC(F)C(Cl)Cl ,-73.48,Pred,N
C2H4Cl2FP,PCC(F)(Cl)Cl,10,6,7491,148.926,"(2,2-dichloro-2-fluoroethyl)phosphane",N,PCC(F)(Cl)Cl,"InChI=1S/C2H4Cl2FP/c3-2(4,5)1-6/h1,6H2",InChIKey=WAJJTSIEHJFHPO-UHFFFAOYSA-N,91.51,Pr,    91.51(BP est)    -63.43(MP est)      ----(BP exp)      ----(MP exp)  PCC(F)(Cl)Cl ,-63.43,Pred,N
C2H4Cl2FP,ClCPC(Cl)F,10,6,7492,148.926,(chlorofluoromethyl)(chloromethyl)phosphane,N,ClCPC(Cl)F,"InChI=1S/C2H4Cl2FP/c3-1-6-2(4)5/h2,6H,1H2",InChIKey=KIYIQGDNEAVCKH-UHFFFAOYSA-N,119.4,Pr,   119.40(BP est)    -72.19(MP est)      ----(BP exp)      ----(MP exp)  ClCPC(Cl)F ,-72.19,Pred,N
C2H4Cl2FP,CPC(F)(Cl)Cl,10,6,7493,148.926,(dichlorofluoromethyl)(methyl)phosphane,N,CPC(F)(Cl)Cl,"InChI=1S/C2H4Cl2FP/c1-6-2(3,4)5/h6H,1H3",InChIKey=UJHRCPXEZPKKRW-UHFFFAOYSA-N,70.26,Pr,    70.26(BP est)    -77.82(MP est)      ----(BP exp)      ----(MP exp)  CPC(F)(Cl)Cl ,-77.82,Pred,N
C2H4Cl2FP,FCPC(Cl)Cl,10,6,7494,148.926,(dichloromethyl)(fluoromethyl)phosphane,N,FCPC(Cl)Cl,"InChI=1S/C2H4Cl2FP/c3-2(4)6-1-5/h2,6H,1H2",InChIKey=FFHGFCMIVWABPO-UHFFFAOYSA-N,106.56,Pr,   106.56(BP est)    -75.94(MP est)      ----(BP exp)      ----(MP exp)  FCPC(Cl)Cl ,-75.94,Pred,N
CH5OPS3,S=P(OC)(S)S,11,6,8416,160.204,"O-methyl S,S-dihydrogen phosphorotrithioate",N,S=P(OC)(S)S,"InChI=1S/CH5OPS3/c1-2-3(4,5)6/h1H3,(H2,4,5,6)",InChIKey=CGFGWOYZRKIILY-UHFFFAOYSA-N,225.05,Pr,   225.05(BP est)    -72.80(MP est)      ----(BP exp)      ----(MP exp)  S=P(OC)(S)S ,-72.8,Pred,N
C4H2BrP,C#CPC#CBr,8,6,8427,160.938,(bromoethynyl)(ethynyl)phosphane,N,C#CPC#CBr,"InChI=1S/C4H2BrP/c1-2-6-4-3-5/h1,6H",InChIKey=BOZQXMIKGNBZDT-UHFFFAOYSA-N,164.4,Pr,   164.40(BP est)      9.14(MP est)      ----(BP exp)      ----(MP exp)  C#CPC#CBr ,9.14,Pred,N
C4H4BrP,BrC(PC#C)=C,10,6,8454,162.954,(1-bromovinyl)(ethynyl)phosphane,N,BrC(PC#C)=C,"InChI=1S/C4H4BrP/c1-3-6-4(2)5/h1,6H,2H2",InChIKey=GIGHWBQIWQLUJV-UHFFFAOYSA-N,140.88,Pr,   140.88(BP est)    -31.84(MP est)      ----(BP exp)      ----(MP exp)  BrC(PC#C)=C ,-31.84,Pred,N
C4H4BrP,BrC=CPC#C,10,6,8455,162.954,(2-bromovinyl)(ethynyl)phosphane,N,BrC=CPC#C,"InChI=1S/C4H4BrP/c1-2-6-4-3-5/h1,3-4,6H",InChIKey=MEUXUSBZGXLMNX-UHFFFAOYSA-N,155.39,Pr,   155.39(BP est)    -22.28(MP est)      ----(BP exp)      ----(MP exp)  BrC=CPC#C ,-22.28,Pred,N
C4H4BrP,C=CPC#CBr,10,6,8456,162.954,(bromoethynyl)(vinyl)phosphane,N,C=CPC#CBr,"InChI=1S/C4H4BrP/c1-2-6-4-3-5/h2,6H,1H2",InChIKey=YZWCRRRVIFECOJ-UHFFFAOYSA-N,155.18,Pr,   155.18(BP est)      8.89(MP est)      ----(BP exp)      ----(MP exp)  C=CPC#CBr ,8.89,Pred,N
C4H4BrP,BrC#CP1CC1,10,6,8457,162.954,1-(bromoethynyl)phosphirane,N,BrC#CP1CC1,InChI=1S/C4H4BrP/c5-1-2-6-3-4-6/h3-4H2,InChIKey=VDPLEDCOQZBJDN-UHFFFAOYSA-N,165.64,Pr,   165.64(BP est)     24.98(MP est)      ----(BP exp)      ----(MP exp)  BrC#CP1CC1 ,24.98,Pred,N
C4H4BrP,C#CP1C(Br)C1,10,6,8458,162.954,2-bromo-1-ethynylphosphirane,N,C#CP1C(Br)C1,"InChI=1S/C4H4BrP/c1-2-6-3-4(6)5/h1,4H,3H2",InChIKey=SIKHYAKYXYZJBM-UHFFFAOYSA-N,151.24,Pr,   151.24(BP est)    -10.91(MP est)      ----(BP exp)      ----(MP exp)  C#CP1C(Br)C1 ,-10.91,Pred,N
C4H4BrP,BrC1=CC=CP1,10,6,8459,162.954,2-bromo-1H-phosphole,N,BrC1=CC=CP1,"InChI=1S/C4H4BrP/c5-4-2-1-3-6-4/h1-3,6H",InChIKey=MTGDQUPPOBJJFG-UHFFFAOYSA-N,156.91,Pr,   156.91(BP est)    -26.43(MP est)      ----(BP exp)      ----(MP exp)  BrC1=CC=CP1 ,-26.43,Pred,N
C4H4BrP,BrC1=CPC=C1,10,6,8460,162.954,3-bromo-1H-phosphole,N,BrC1=CPC=C1,"InChI=1S/C4H4BrP/c5-4-1-2-6-3-4/h1-3,6H",InChIKey=YBVLDZUAXKHEFP-UHFFFAOYSA-N,156.91,Pr,   156.91(BP est)    -26.43(MP est)      ----(BP exp)      ----(MP exp)  BrC1=CPC=C1 ,-26.43,Pred,N
C2H2Cl3P,PC(Cl)=C(Cl)Cl,8,6,8475,163.362,"(1,2,2-trichlorovinyl)phosphane",N,PC(Cl)=C(Cl)Cl,InChI=1S/C2H2Cl3P/c3-1(4)2(5)6/h6H2,InChIKey=CFPIFYDEJREBPP-UHFFFAOYSA-N,138.06,Pr,   138.06(BP est)    -52.89(MP est)      ----(BP exp)      ----(MP exp)  PC(Cl)=C(Cl)Cl ,-52.89,Pred,N
C2H2Cl3P,ClC1C(Cl)(Cl)P1,8,6,8476,163.362,"2,2,3-trichlorophosphirane",N,ClC1C(Cl)(Cl)P1,"InChI=1S/C2H2Cl3P/c3-1-2(4,5)6-1/h1,6H",InChIKey=QQNYARQADHMFAR-UHFFFAOYSA-N,125.53,Pr,   125.53(BP est)    -27.67(MP est)      ----(BP exp)      ----(MP exp)  ClC1C(Cl)(Cl)P1 ,-27.67,Pred,N
C3H2BrOP,O=PC(Br)C#C,8,6,8490,164.926,(1-bromoprop-2-yn-1-yl)(oxo)phosphane,N,O=PC(Br)C#C,"InChI=1S/C3H2BrOP/c1-2-3(4)6-5/h1,3H",InChIKey=LTUGKBSCEPYLCQ-UHFFFAOYSA-N,175.42,Pr,   175.42(BP est)     -1.34(MP est)      ----(BP exp)      ----(MP exp)  O=PC(Br)C#C ,-1.34,Pred,N
C3H2BrOP,O=PCC#CBr,8,6,8491,164.926,(3-bromoprop-2-yn-1-yl)(oxo)phosphane,N,O=PCC#CBr,InChI=1S/C3H2BrOP/c4-2-1-3-6-5/h3H2,InChIKey=BIEDEJLEQKZEHO-UHFFFAOYSA-N,195.49,Pr,   195.49(BP est)     25.32(MP est)      ----(BP exp)      ----(MP exp)  O=PCC#CBr ,25.32,Pred,N
C4H6BrP,BrC(P)CC#C,12,6,8492,164.97,(1-bromobut-3-yn-1-yl)phosphane,N,BrC(P)CC#C,"InChI=1S/C4H6BrP/c1-2-3-4(5)6/h1,4H,3,6H2",InChIKey=JCFIHDCINXTCEX-UHFFFAOYSA-N,154.26,Pr,   154.26(BP est)    -19.38(MP est)      ----(BP exp)      ----(MP exp)  BrC(P)CC#C ,-19.38,Pred,N
C4H6BrP,BrCC(P)C#C,12,6,8493,164.97,(1-bromobut-3-yn-2-yl)phosphane,N,BrCC(P)C#C,"InChI=1S/C4H6BrP/c1-2-4(6)3-5/h1,4H,3,6H2",InChIKey=QTSBYUOWOQTCRA-UHFFFAOYSA-N,154.26,Pr,   154.26(BP est)    -19.38(MP est)      ----(BP exp)      ----(MP exp)  BrCC(P)C#C ,-19.38,Pred,N
C4H6BrP,BrC1(P)CC=C1,12,6,8494,164.97,(1-bromocyclobut-2-en-1-yl)phosphane,N,BrC1(P)CC=C1,"InChI=1S/C4H6BrP/c5-4(6)2-1-3-4/h1-2H,3,6H2",InChIKey=LMEGXAKBAFAYQM-UHFFFAOYSA-N,156.82,Pr,   156.82(BP est)    -15.08(MP est)      ----(BP exp)      ----(MP exp)  BrC1(P)CC=C1 ,-15.08,Pred,N
C4H6BrP,BrC(PC#C)C,12,6,8495,164.97,(1-bromoethyl)(ethynyl)phosphane,N,BrC(PC#C)C,"InChI=1S/C4H6BrP/c1-3-6-4(2)5/h1,4,6H,2H3",InChIKey=XFUDHICQSKIMGI-UHFFFAOYSA-N,135.12,Pr,   135.12(BP est)    -33.16(MP est)      ----(BP exp)      ----(MP exp)  BrC(PC#C)C ,-33.16,Pred,N
C4H6BrP,CPC(C#C)Br,12,6,8496,164.97,(1-bromoprop-2-yn-1-yl)(methyl)phosphane,N,CPC(C#C)Br,"InChI=1S/C4H6BrP/c1-3-4(5)6-2/h1,4,6H,2H3",InChIKey=JAJUHYHGSZKQJU-UHFFFAOYSA-N,135.12,Pr,   135.12(BP est)    -33.16(MP est)      ----(BP exp)      ----(MP exp)  CPC(C#C)Br ,-33.16,Pred,N
C4H6BrP,C=CPC(Br)=C,12,6,8497,164.97,(1-bromovinyl)(vinyl)phosphane,N,C=CPC(Br)=C,"InChI=1S/C4H6BrP/c1-3-6-4(2)5/h3,6H,1-2H2",InChIKey=QSIYMKIHGOGXCC-UHFFFAOYSA-N,131.24,Pr,   131.24(BP est)    -59.01(MP est)      ----(BP exp)      ----(MP exp)  C=CPC(Br)=C ,-59.01,Pred,N
C4H6BrP,BrC(C#C)CP,12,6,8498,164.97,(2-bromobut-3-yn-1-yl)phosphane,N,BrC(C#C)CP,"InChI=1S/C4H6BrP/c1-2-4(5)3-6/h1,4H,3,6H2",InChIKey=UQCOUCNOZBUFFD-UHFFFAOYSA-N,154.26,Pr,   154.26(BP est)    -19.38(MP est)      ----(BP exp)      ----(MP exp)  BrC(C#C)CP ,-19.38,Pred,N
C4H6BrP,BrC(C#C)(P)C,12,6,8499,164.97,(2-bromobut-3-yn-2-yl)phosphane,N,BrC(C#C)(P)C,"InChI=1S/C4H6BrP/c1-3-4(2,5)6/h1H,6H2,2H3",InChIKey=DSAAHLONUGXGFI-UHFFFAOYSA-N,145.52,Pr,   145.52(BP est)    -13.23(MP est)      ----(BP exp)      ----(MP exp)  BrC(C#C)(P)C ,-13.23,Pred,N
C4H6BrP,BrCCPC#C,12,6,8500,164.97,(2-bromoethyl)(ethynyl)phosphane,N,BrCCPC#C,"InChI=1S/C4H6BrP/c1-2-6-4-3-5/h1,6H,3-4H2",InChIKey=YHTJAWSYGWIRCL-UHFFFAOYSA-N,148.62,Pr,   148.62(BP est)    -21.72(MP est)      ----(BP exp)      ----(MP exp)  BrCCPC#C ,-21.72,Pred,N
C4H6BrP,C=CPC=CBr,12,6,8501,164.97,(2-bromovinyl)(vinyl)phosphane,N,C=CPC=CBr,"InChI=1S/C4H6BrP/c1-2-6-4-3-5/h2-4,6H,1H2",InChIKey=CWJPJAVHQVEREN-UHFFFAOYSA-N,146.01,Pr,   146.01(BP est)    -49.38(MP est)      ----(BP exp)      ----(MP exp)  C=CPC=CBr ,-49.38,Pred,N
C4H6BrP,CPCC#CBr,12,6,8502,164.97,(3-bromoprop-2-yn-1-yl)(methyl)phosphane,N,CPCC#CBr,"InChI=1S/C4H6BrP/c1-6-4-2-3-5/h6H,4H2,1H3",InChIKey=LNJXJEHKBFDTCR-UHFFFAOYSA-N,156.82,Pr,   156.82(BP est)     10.24(MP est)      ----(BP exp)      ----(MP exp)  CPCC#CBr ,10.24,Pred,N
C4H6BrP,CCPC#CBr,12,6,8503,164.97,(bromoethynyl)(ethyl)phosphane,N,CCPC#CBr,"InChI=1S/C4H6BrP/c1-2-6-4-3-5/h6H,2H2,1H3",InChIKey=BLWCMAHGRDEVMR-UHFFFAOYSA-N,156.82,Pr,   156.82(BP est)     10.24(MP est)      ----(BP exp)      ----(MP exp)  CCPC#CBr ,10.24,Pred,N
C4H6BrP,CP(C)C#CBr,12,6,8504,164.97,(bromoethynyl)dimethylphosphane,N,CP(C)C#CBr,InChI=1S/C4H6BrP/c1-6(2)4-3-5/h1-2H3,InChIKey=KTVBDTUFHUZJSL-UHFFFAOYSA-N,157.69,Pr,   157.69(BP est)      9.81(MP est)      ----(BP exp)      ----(MP exp)  CP(C)C#CBr ,9.81,Pred,N
C4H6BrP,CP(CBr)C#C,12,6,8505,164.97,(bromomethyl)(ethynyl)(methyl)phosphane,N,CP(CBr)C#C,"InChI=1S/C4H6BrP/c1-3-6(2)4-5/h1H,4H2,2H3",InChIKey=SXLREFJLRAPABN-UHFFFAOYSA-N,149.51,Pr,   149.51(BP est)    -22.14(MP est)      ----(BP exp)      ----(MP exp)  CP(CBr)C#C ,-22.14,Pred,N
C4H6BrP,BrCPCC#C,12,6,8506,164.97,(bromomethyl)(prop-2-yn-1-yl)phosphane,N,BrCPCC#C,"InChI=1S/C4H6BrP/c1-2-3-6-4-5/h1,6H,3-4H2",InChIKey=KTHBMENJOZYXLR-UHFFFAOYSA-N,148.62,Pr,   148.62(BP est)    -21.72(MP est)      ----(BP exp)      ----(MP exp)  BrCPCC#C ,-21.72,Pred,N
C4H6BrP,BrC(P1CC1)=C,12,6,8507,164.97,1-(1-bromovinyl)phosphirane,N,BrC(P1CC1)=C,InChI=1S/C4H6BrP/c1-4(5)6-2-3-6/h1-3H2,InChIKey=WGWBMHUICXFQSL-UHFFFAOYSA-N,142.16,Pr,   142.16(BP est)    -42.78(MP est)      ----(BP exp)      ----(MP exp)  BrC(P1CC1)=C ,-42.78,Pred,N
C4H6BrP,BrC=CP1CC1,12,6,8508,164.97,1-(2-bromovinyl)phosphirane,N,BrC=CP1CC1,"InChI=1S/C4H6BrP/c5-1-2-6-3-4-6/h1-2H,3-4H2",InChIKey=GZQUBLTWHPJYLM-UHFFFAOYSA-N,156.64,Pr,   156.64(BP est)    -33.23(MP est)      ----(BP exp)      ----(MP exp)  BrC=CP1CC1 ,-33.23,Pred,N
C4H6BrP,BrCP1C=CC1,12,6,8509,164.97,"1-(bromomethyl)-1,2-dihydrophosphete",N,BrCP1C=CC1,"InChI=1S/C4H6BrP/c5-4-6-2-1-3-6/h1-2H,3-4H2",InChIKey=XTDHEZQKWDTYMH-UHFFFAOYSA-N,154.79,Pr,   154.79(BP est)    -32.62(MP est)      ----(BP exp)      ----(MP exp)  BrCP1C=CC1 ,-32.62,Pred,N
C4H6BrP,CP1C=CC1Br,12,6,8510,164.97,"2-bromo-1-methyl-1,2-dihydrophosphete",N,CP1C=CC1Br,"InChI=1S/C4H6BrP/c1-6-3-2-4(6)5/h2-4H,1H3",InChIKey=NTURYDMBEPSLLX-UHFFFAOYSA-N,148.41,Pr,   148.41(BP est)    -36.60(MP est)      ----(BP exp)      ----(MP exp)  CP1C=CC1Br ,-36.6,Pred,N
C4H6BrP,BrC1CP1C=C,12,6,8511,164.97,2-bromo-1-vinylphosphirane,N,BrC1CP1C=C,"InChI=1S/C4H6BrP/c1-2-6-3-4(6)5/h2,4H,1,3H2",InChIKey=WMTMGVLJCOSKRL-UHFFFAOYSA-N,141.78,Pr,   141.78(BP est)    -38.03(MP est)      ----(BP exp)      ----(MP exp)  BrC1CP1C=C ,-38.03,Pred,N
C4H6BrP,BrC1CC=CP1,12,6,8512,164.97,"2-bromo-2,3-dihydro-1H-phosphole",N,BrC1CC=CP1,"InChI=1S/C4H6BrP/c5-4-2-1-3-6-4/h1,3-4,6H,2H2",InChIKey=ISCSIJZROISGOE-UHFFFAOYSA-N,149.55,Pr,   149.55(BP est)    -37.34(MP est)      ----(BP exp)      ----(MP exp)  BrC1CC=CP1 ,-37.34,Pred,N
C4H6BrP,CP1C=C(Br)C1,12,6,8513,164.97,"3-bromo-1-methyl-1,2-dihydrophosphete",N,CP1C=C(Br)C1,"InChI=1S/C4H6BrP/c1-6-2-4(5)3-6/h2H,3H2,1H3",InChIKey=VCRMISCKMIJAAQ-UHFFFAOYSA-N,152.91,Pr,   152.91(BP est)    -26.90(MP est)      ----(BP exp)      ----(MP exp)  CP1C=C(Br)C1 ,-26.9,Pred,N
C4H6BrP,BrC1C=CPC1,12,6,8514,164.97,"3-bromo-2,3-dihydro-1H-phosphole",N,BrC1C=CPC1,"InChI=1S/C4H6BrP/c5-4-1-2-6-3-4/h1-2,4,6H,3H2",InChIKey=DGZRCTPOYZRGMS-UHFFFAOYSA-N,149.55,Pr,   149.55(BP est)    -37.34(MP est)      ----(BP exp)      ----(MP exp)  BrC1C=CPC1 ,-37.34,Pred,N
C4H6BrP,CP1C(Br)=CC1,12,6,8515,164.97,"4-bromo-1-methyl-1,2-dihydrophosphete",N,CP1C(Br)=CC1,"InChI=1S/C4H6BrP/c1-6-3-2-4(6)5/h2H,3H2,1H3",InChIKey=XWBRXGBYHQDXDS-UHFFFAOYSA-N,152.91,Pr,   152.91(BP est)    -26.90(MP est)      ----(BP exp)      ----(MP exp)  CP1C(Br)=CC1 ,-26.9,Pred,N
C4H6BrP,BrC1=CPCC1,12,6,8516,164.97,"4-bromo-2,3-dihydro-1H-phosphole",N,BrC1=CPCC1,"InChI=1S/C4H6BrP/c5-4-1-2-6-3-4/h3,6H,1-2H2",InChIKey=SOXUNVFBOPDYLR-UHFFFAOYSA-N,154.04,Pr,   154.04(BP est)    -27.65(MP est)      ----(BP exp)      ----(MP exp)  BrC1=CPCC1 ,-27.65,Pred,N
C4H6BrP,BrC1=CCCP1,12,6,8517,164.97,"5-bromo-2,3-dihydro-1H-phosphole",N,BrC1=CCCP1,"InChI=1S/C4H6BrP/c5-4-2-1-3-6-4/h2,6H,1,3H2",InChIKey=XLEDSBBKSQYNKY-UHFFFAOYSA-N,154.04,Pr,   154.04(BP est)    -27.65(MP est)      ----(BP exp)      ----(MP exp)  BrC1=CCCP1 ,-27.65,Pred,N
CCl3OP,O=PC(Cl)(Cl)Cl,6,6,8550,165.334,oxo(trichloromethyl)phosphane,N,O=PC(Cl)(Cl)Cl,"InChI=1S/CCl3OP/c2-1(3,4)6-5",InChIKey=RDQCXMUEJJIHQT-UHFFFAOYSA-N,149.04,Pr,   149.04(BP est)    -20.11(MP est)      ----(BP exp)      ----(MP exp)  O=PC(Cl)(Cl)Cl ,-20.11,Pred,N
C2H4Cl3P,ClC(CCl)(P)Cl,10,6,8553,165.378,"(1,1,2-trichloroethyl)phosphane",N,ClC(CCl)(P)Cl,"InChI=1S/C2H4Cl3P/c3-1-2(4,5)6/h1,6H2",InChIKey=FNVBZKTVGVHCLM-UHFFFAOYSA-N,151.32,Pr,   151.32(BP est)    -31.31(MP est)      ----(BP exp)      ----(MP exp)  ClC(CCl)(P)Cl ,-31.31,Pred,N
C2H4Cl3P,ClC(P)C(Cl)Cl,10,6,8554,165.378,"(1,2,2-trichloroethyl)phosphane",N,ClC(P)C(Cl)Cl,"InChI=1S/C2H4Cl3P/c3-1(4)2(5)6/h1-2H,6H2",InChIKey=KEBHUJWXEQPBTP-UHFFFAOYSA-N,158.66,Pr,   158.66(BP est)    -45.37(MP est)      ----(BP exp)      ----(MP exp)  ClC(P)C(Cl)Cl ,-45.37,Pred,N
C2H4Cl3P,ClC(Cl)(Cl)CP,10,6,8555,165.378,"(2,2,2-trichloroethyl)phosphane",N,ClC(Cl)(Cl)CP,"InChI=1S/C2H4Cl3P/c3-2(4,5)1-6/h1,6H2",InChIKey=OSSMJQGXYASWSA-UHFFFAOYSA-N,126.79,Pr,   126.79(BP est)    -38.47(MP est)      ----(BP exp)      ----(MP exp)  ClC(Cl)(Cl)CP ,-38.47,Pred,N
C2H4Cl3P,ClCPC(Cl)Cl,10,6,8556,165.378,(chloromethyl)(dichloromethyl)phosphane,N,ClCPC(Cl)Cl,"InChI=1S/C2H4Cl3P/c3-1-6-2(4)5/h2,6H,1H2",InChIKey=RQXNHGMXQFUOHZ-UHFFFAOYSA-N,164.91,Pr,   164.91(BP est)    -44.24(MP est)      ----(BP exp)      ----(MP exp)  ClCPC(Cl)Cl ,-44.24,Pred,N
C2H4Cl3P,CPC(Cl)(Cl)Cl,10,6,8557,165.378,methyl(trichloromethyl)phosphane,N,CPC(Cl)(Cl)Cl,"InChI=1S/C2H4Cl3P/c1-6-2(3,4)5/h6H,1H3",InChIKey=BWSRZTAXFGZVDP-UHFFFAOYSA-N,106.7,Pr,   106.70(BP est)    -52.52(MP est)      ----(BP exp)      ----(MP exp)  CPC(Cl)(Cl)Cl ,-52.52,Pred,N
C3H4BrOP,O=PC(Br)C=C,10,6,8589,166.942,(1-bromoallyl)(oxo)phosphane,N,O=PC(Br)C=C,"InChI=1S/C3H4BrOP/c1-2-3(4)6-5/h2-3H,1H2",InChIKey=SPIXVTNGJWDZKC-UHFFFAOYSA-N,166.4,Pr,   166.40(BP est)    -28.34(MP est)      ----(BP exp)      ----(MP exp)  O=PC(Br)C=C ,-28.34,Pred,N
C3H4BrOP,O=PCC(Br)=C,10,6,8591,166.942,(2-bromoallyl)(oxo)phosphane,N,O=PCC(Br)=C,InChI=1S/C3H4BrOP/c1-3(4)2-6-5/h1-2H2,InChIKey=DOMAJDIIPAPBGF-UHFFFAOYSA-N,173.41,Pr,   173.41(BP est)    -25.77(MP est)      ----(BP exp)      ----(MP exp)  O=PCC(Br)=C ,-25.77,Pred,N
C3H4BrOP,O=PCC=CBr,10,6,8592,166.942,(3-bromoallyl)(oxo)phosphane,N,O=PCC=CBr,"InChI=1S/C3H4BrOP/c4-2-1-3-6-5/h1-2H,3H2",InChIKey=KXMULVRAOGWWMY-UHFFFAOYSA-N,187.04,Pr,   187.04(BP est)    -16.48(MP est)      ----(BP exp)      ----(MP exp)  O=PCC=CBr ,-16.48,Pred,N
C3H4BrOP,BrC#CPOC,10,6,8595,166.942,(bromoethynyl)(methoxy)phosphane,N,BrC#CPOC,"InChI=1S/C3H4BrOP/c1-5-6-3-2-4/h6H,1H3",InChIKey=QWQOZFZLNNNNGV-UHFFFAOYSA-N,157.66,Pr,   157.66(BP est)     15.97(MP est)      ----(BP exp)      ----(MP exp)  BrC#CPOC ,15.97,Pred,N
C3H4BrOP,O=P(C)C#CBr,10,6,8596,166.942,(bromoethynyl)(methyl)phosphine oxide,N,O=P(C)C#CBr,"InChI=1S/C3H4BrOP/c1-6(5)3-2-4/h6H,1H3",InChIKey=XQAVNVXHJCCZCQ-UHFFFAOYSA-N,193.62,Pr,   193.62(BP est)     21.70(MP est)      ----(BP exp)      ----(MP exp)  O=P(C)C#CBr ,21.7,Pred,N
C3H4BrOP,O=P(CBr)C#C,10,6,8598,166.942,(bromomethyl)(ethynyl)phosphine oxide,N,O=P(CBr)C#C,"InChI=1S/C3H4BrOP/c1-2-6(5)3-4/h1,6H,3H2",InChIKey=QHXBAYFBDYICTF-UHFFFAOYSA-N,186.02,Pr,   186.02(BP est)      1.07(MP est)      ----(BP exp)      ----(MP exp)  O=P(CBr)C#C ,1.07,Pred,N