Formula,SMILES,Tot_atoms,Tot_nH_atoms,Dataset_no,Molecular_weight,IUPAC_chemname,Metalloid,EPISUITE,InChI_Code,InChI_Key,Boiling_Point,BP_basis,EPIsuite_output,MP,Basis,Life
C3H3FIP,IC1C=C(F)P1,9,6,11471,215.934,"4-fluoro-2-iodo-1,2-dihydrophosphete",N,IC1C=C(F)P1,"InChI=1S/C3H3FIP/c4-2-1-3(5)6-2/h1,3,6H",InChIKey=OGPDFNFQGBWFRD-UHFFFAOYSA-N,157.91,Pr,   157.91(BP est)    -33.09(MP est)      ----(BP exp)      ----(MP exp)  IC1C=C(F)P1 ,-33.09,Pred,N
C3H3FIP,FC1=C(CP1)I,9,6,11472,215.934,"4-fluoro-3-iodo-1,2-dihydrophosphete",N,FC1=C(CP1)I,"InChI=1S/C3H3FIP/c4-3-2(5)1-6-3/h6H,1H2",InChIKey=HEKWPPGCRHMDLW-UHFFFAOYSA-N,162.33,Pr,   162.33(BP est)    -23.42(MP est)      ----(BP exp)      ----(MP exp)  FC1=C(CP1)I ,-23.42,Pred,N
C3H3FIP,FC(PC#C)I,9,6,11473,215.934,ethynyl(fluoroiodomethyl)phosphane,N,FC(PC#C)I,"InChI=1S/C3H3FIP/c1-2-6-3(4)5/h1,3,6H",InChIKey=QCEINSOVKINTGV-UHFFFAOYSA-N,147.65,Pr,   147.65(BP est)    -35.71(MP est)      ----(BP exp)      ----(MP exp)  FC(PC#C)I ,-35.71,Pred,N
C3H6IOP,O=PC(I)CC,12,6,11474,215.958,(1-iodopropyl)(oxo)phosphane,N,O=PC(I)CC,"InChI=1S/C3H6IOP/c1-2-3(4)6-5/h3H,2H2,1H3",InChIKey=NXPZOJNUGHSBSB-UHFFFAOYSA-N,198.18,Pr,   198.18(BP est)    -19.05(MP est)      ----(BP exp)      ----(MP exp)  O=PC(I)CC ,-19.05,Pred,N
C3H6IOP,IC(POC)=C,12,6,11475,215.958,(1-iodovinyl)(methoxy)phosphane,N,IC(POC)=C,"InChI=1S/C3H6IOP/c1-3(4)6-5-2/h6H,1H2,2H3",InChIKey=ODNTULMTSKIYTI-UHFFFAOYSA-N,166.06,Pr,   166.06(BP est)    -43.36(MP est)      ----(BP exp)      ----(MP exp)  IC(POC)=C ,-43.36,Pred,N
C3H6IOP,O=P(C)C(I)=C,12,6,11476,215.958,(1-iodovinyl)(methyl)phosphine oxide,N,O=P(C)C(I)=C,"InChI=1S/C3H6IOP/c1-3(4)6(2)5/h6H,1H2,2H3",InChIKey=DVPBGTRQYCRWQO-UHFFFAOYSA-N,201.42,Pr,   201.42(BP est)    -26.65(MP est)      ----(BP exp)      ----(MP exp)  O=P(C)C(I)=C ,-26.65,Pred,N
C3H6IOP,O=PCC(I)C,12,6,11477,215.958,(2-iodopropyl)(oxo)phosphane,N,O=PCC(I)C,"InChI=1S/C3H6IOP/c1-3(4)2-6-5/h3H,2H2,1H3",InChIKey=KNYFCXWVNKEEGM-UHFFFAOYSA-N,198.18,Pr,   198.18(BP est)    -19.05(MP est)      ----(BP exp)      ----(MP exp)  O=PCC(I)C ,-19.05,Pred,N
C3H6IOP,IC=CPOC,12,6,11478,215.958,(2-iodovinyl)(methoxy)phosphane,N,IC=CPOC,"InChI=1S/C3H6IOP/c1-5-6-3-2-4/h2-3,6H,1H3",InChIKey=HUSGPGKRKUWPHY-UHFFFAOYSA-N,179.89,Pr,   179.89(BP est)    -34.00(MP est)      ----(BP exp)      ----(MP exp)  IC=CPOC ,-34,Pred,N
C3H6IOP,O=P(C)C=CI,12,6,11479,215.958,(2-iodovinyl)(methyl)phosphine oxide,N,O=P(C)C=CI,"InChI=1S/C3H6IOP/c1-6(5)3-2-4/h2-3,6H,1H3",InChIKey=XZVFVXXOZMUDES-UHFFFAOYSA-N,214.24,Pr,   214.24(BP est)    -17.59(MP est)      ----(BP exp)      ----(MP exp)  O=P(C)C=CI ,-17.59,Pred,N
C3H6IOP,O=PCCCI,12,6,11480,215.958,(3-iodopropyl)(oxo)phosphane,N,O=PCCCI,InChI=1S/C3H6IOP/c4-2-1-3-6-5/h1-3H2,InChIKey=KODINNIQCGSJOZ-UHFFFAOYSA-N,210.07,Pr,   210.07(BP est)     -8.08(MP est)      ----(BP exp)      ----(MP exp)  O=PCCCI ,-8.08,Pred,N
C3H6IOP,O=P(CI)C=C,12,6,11481,215.958,(iodomethyl)(vinyl)phosphine oxide,N,O=P(CI)C=C,"InChI=1S/C3H6IOP/c1-2-6(5)3-4/h2,6H,1,3H2",InChIKey=KGANOEPOVWPUOV-UHFFFAOYSA-N,206.8,Pr,   206.80(BP est)    -18.10(MP est)      ----(BP exp)      ----(MP exp)  O=P(CI)C=C ,-18.1,Pred,N
C3H6IOP,O=P1(CI)CC1,12,6,11482,215.958,1-(iodomethyl)phosphirane 1-oxide,N,O=P1(CI)CC1,InChI=1S/C3H6IOP/c4-3-6(5)1-2-6/h1-3H2,InChIKey=JDXXDXYAZXYIAU-UHFFFAOYSA-N,213.62,Pr,   213.62(BP est)    -10.57(MP est)      ----(BP exp)      ----(MP exp)  O=P1(CI)CC1 ,-10.57,Pred,N
C3H6IOP,IC1CP1OC,12,6,11483,215.958,2-iodo-1-methoxyphosphirane,N,IC1CP1OC,"InChI=1S/C3H6IOP/c1-5-6-2-3(6)4/h3H,2H2,1H3",InChIKey=WJZOCBMYRSMDOL-UHFFFAOYSA-N,175.94,Pr,   175.94(BP est)    -22.57(MP est)      ----(BP exp)      ----(MP exp)  IC1CP1OC ,-22.57,Pred,N
C3H6IOP,O=P1(C)C(I)C1,12,6,11484,215.958,2-iodo-1-methylphosphirane 1-oxide,N,O=P1(C)C(I)C1,"InChI=1S/C3H6IOP/c1-6(5)2-3(6)4/h3H,2H2,1H3",InChIKey=PCCNIHNDBODJNG-UHFFFAOYSA-N,207.99,Pr,   207.99(BP est)    -14.33(MP est)      ----(BP exp)      ----(MP exp)  O=P1(C)C(I)C1 ,-14.33,Pred,N
C3H6IOP,O=P1C(I)CC1,12,6,11486,215.958,2-iodophosphetane 1-oxide,N,O=P1C(I)CC1,"InChI=1S/C3H6IOP/c4-3-1-2-6(3)5/h3,6H,1-2H2",InChIKey=JDWSKDXULOTXBM-UHFFFAOYSA-N,211.57,Pr,   211.57(BP est)     -6.86(MP est)      ----(BP exp)      ----(MP exp)  O=P1C(I)CC1 ,-6.86,Pred,N
C3H6IOP,O=P1CC(I)C1,12,6,11488,215.958,3-iodophosphetane 1-oxide,N,O=P1CC(I)C1,"InChI=1S/C3H6IOP/c4-3-1-6(5)2-3/h3,6H,1-2H2",InChIKey=TYYBWAHORPYTGT-UHFFFAOYSA-N,211.57,Pr,   211.57(BP est)     -6.86(MP est)      ----(BP exp)      ----(MP exp)  O=P1CC(I)C1 ,-6.86,Pred,N
C4H10IP,CP(C)C(I)C,16,6,11495,216.002,(1-iodoethyl)dimethylphosphane,N,CP(C)C(I)C,"InChI=1S/C4H10IP/c1-4(5)6(2)3/h4H,1-3H3",InChIKey=PQGOGSGNKCXXGD-UHFFFAOYSA-N,160.6,Pr,   160.60(BP est)    -50.76(MP est)      ----(BP exp)      ----(MP exp)  CP(C)C(I)C ,-50.76,Pred,N
C4H10IP,CPC(CI)C,16,6,11496,216.002,(1-iodopropan-2-yl)(methyl)phosphane,N,CPC(CI)C,"InChI=1S/C4H10IP/c1-4(3-5)6-2/h4,6H,3H2,1-2H3",InChIKey=VWCUUTQLIZPCAY-UHFFFAOYSA-N,159.73,Pr,   159.73(BP est)    -50.33(MP est)      ----(BP exp)      ----(MP exp)  CPC(CI)C ,-50.33,Pred,N
C4H10IP,CPC(CC)I,16,6,11497,216.002,(1-iodopropyl)(methyl)phosphane,N,CPC(CC)I,"InChI=1S/C4H10IP/c1-3-4(5)6-2/h4,6H,3H2,1-2H3",InChIKey=UYDYMHNFFBBYBF-UHFFFAOYSA-N,159.73,Pr,   159.73(BP est)    -50.33(MP est)      ----(BP exp)      ----(MP exp)  CPC(CC)I ,-50.33,Pred,N
C4H10IP,CP(C)CCI,16,6,11498,216.002,(2-iodoethyl)dimethylphosphane,N,CP(C)CCI,"InChI=1S/C4H10IP/c1-6(2)4-3-5/h3-4H2,1-2H3",InChIKey=RMEOUBXBEAAEKP-UHFFFAOYSA-N,173.47,Pr,   173.47(BP est)    -39.50(MP est)      ----(BP exp)      ----(MP exp)  CP(C)CCI ,-39.5,Pred,N
C4H10IP,CPC(C)(C)I,16,6,11499,216.002,(2-iodopropan-2-yl)(methyl)phosphane,N,CPC(C)(C)I,"InChI=1S/C4H10IP/c1-4(2,5)6-3/h6H,1-3H3",InChIKey=ICSAOHJQZHETMQ-UHFFFAOYSA-N,151.07,Pr,   151.07(BP est)    -44.15(MP est)      ----(BP exp)      ----(MP exp)  CPC(C)(C)I ,-44.15,Pred,N
C4H10IP,CPCC(C)I,16,6,11500,216.002,(2-iodopropyl)(methyl)phosphane,N,CPCC(C)I,"InChI=1S/C4H10IP/c1-4(5)3-6-2/h4,6H,3H2,1-2H3",InChIKey=IDQAAIUUVWHDSX-UHFFFAOYSA-N,159.73,Pr,   159.73(BP est)    -50.33(MP est)      ----(BP exp)      ----(MP exp)  CPCC(C)I ,-50.33,Pred,N
C4H10IP,CPCCCI,16,6,11501,216.002,(3-iodopropyl)(methyl)phosphane,N,CPCCCI,"InChI=1S/C4H10IP/c1-6-4-2-3-5/h6H,2-4H2,1H3",InChIKey=KPFUGUMQNAOQDN-UHFFFAOYSA-N,172.62,Pr,   172.62(BP est)    -39.06(MP est)      ----(BP exp)      ----(MP exp)  CPCCCI ,-39.06,Pred,N
C4H10IP,ICPC(C)C,16,6,11502,216.002,(iodomethyl)(isopropyl)phosphane,N,ICPC(C)C,"InChI=1S/C4H10IP/c1-4(2)6-3-5/h4,6H,3H2,1-2H3",InChIKey=QDURVVCBEPIHNB-UHFFFAOYSA-N,159.73,Pr,   159.73(BP est)    -50.33(MP est)      ----(BP exp)      ----(MP exp)  ICPC(C)C ,-50.33,Pred,N
C4H10IP,ICPCCC,16,6,11503,216.002,(iodomethyl)(propyl)phosphane,N,ICPCCC,"InChI=1S/C4H10IP/c1-2-3-6-4-5/h6H,2-4H2,1H3",InChIKey=IAKAHBDUTODPEF-UHFFFAOYSA-N,172.62,Pr,   172.62(BP est)    -39.06(MP est)      ----(BP exp)      ----(MP exp)  ICPCCC ,-39.06,Pred,N
C4H10IP,CCPC(C)I,16,6,11504,216.002,ethyl(1-iodoethyl)phosphane,N,CCPC(C)I,"InChI=1S/C4H10IP/c1-3-6-4(2)5/h4,6H,3H2,1-2H3",InChIKey=WQDXZBSNGAMIIT-UHFFFAOYSA-N,159.73,Pr,   159.73(BP est)    -50.33(MP est)      ----(BP exp)      ----(MP exp)  CCPC(C)I ,-50.33,Pred,N
C4H10IP,CCPCCI,16,6,11505,216.002,ethyl(2-iodoethyl)phosphane,N,CCPCCI,"InChI=1S/C4H10IP/c1-2-6-4-3-5/h6H,2-4H2,1H3",InChIKey=UVYHMRIATYBDRK-UHFFFAOYSA-N,172.62,Pr,   172.62(BP est)    -39.06(MP est)      ----(BP exp)      ----(MP exp)  CCPCCI ,-39.06,Pred,N
C4H10IP,CP(CI)CC,16,6,11506,216.002,ethyl(iodomethyl)(methyl)phosphane,N,CP(CI)CC,"InChI=1S/C4H10IP/c1-3-6(2)4-5/h3-4H2,1-2H3",InChIKey=HBOZSOXDBIBLFK-UHFFFAOYSA-N,173.47,Pr,   173.47(BP est)    -39.50(MP est)      ----(BP exp)      ----(MP exp)  CP(CI)CC ,-39.5,Pred,N
C2HFIOP,O=PC(F)=CI,7,6,11675,217.906,(1-fluoro-2-iodovinyl)(oxo)phosphane,N,O=PC(F)=CI,InChI=1S/C2HFIOP/c3-2(1-4)6-5/h1H,InChIKey=SORZBAGJBVFBPF-UHFFFAOYSA-N,192.86,Pr,   192.86(BP est)    -27.96(MP est)      ----(BP exp)      ----(MP exp)  O=PC(F)=CI ,-27.96,Pred,N
C2HFIOP,O=PC(I)=CF,7,6,11676,217.906,(2-fluoro-1-iodovinyl)(oxo)phosphane,N,O=PC(I)=CF,InChI=1S/C2HFIOP/c3-1-2(4)6-5/h1H,InChIKey=IZLFEVOONVITHA-UHFFFAOYSA-N,192.86,Pr,   192.86(BP est)    -27.96(MP est)      ----(BP exp)      ----(MP exp)  O=PC(I)=CF ,-27.96,Pred,N
C2HFIOP,O=PC=C(F)I,7,6,11677,217.906,(2-fluoro-2-iodovinyl)(oxo)phosphane,N,O=PC=C(F)I,InChI=1S/C2HFIOP/c3-2(4)1-6-5/h1H,InChIKey=HCYFYXWYODJGHI-UHFFFAOYSA-N,192.86,Pr,   192.86(BP est)    -27.96(MP est)      ----(BP exp)      ----(MP exp)  O=PC=C(F)I ,-27.96,Pred,N
C2H4IO2P,O=P(C(I)=C)O,10,6,11678,217.93,(1-iodovinyl)phosphinic acid,N,O=P(C(I)=C)O,"InChI=1S/C2H4IO2P/c1-2(3)6(4)5/h6H,1H2,(H,4,5)",InChIKey=ORUDZTWZVUAPGP-UHFFFAOYSA-N,265.02,Pr,   265.02(BP est)     16.69(MP est)      ----(BP exp)      ----(MP exp)  O=P(C(I)=C)O ,16.69,Pred,N
C2H4IO2P,O=P(C=CI)O,10,6,11679,217.93,(2-iodovinyl)phosphinic acid,N,O=P(C=CI)O,"InChI=1S/C2H4IO2P/c3-1-2-6(4)5/h1-2,6H,(H,4,5)",InChIKey=QLUIWNQJCQMOHD-UHFFFAOYSA-N,275.77,Pr,   275.77(BP est)     25.15(MP est)      ----(BP exp)      ----(MP exp)  O=P(C=CI)O ,25.15,Pred,N
C2H4IO2P,O=P1(O)C(I)C1,10,6,11680,217.93,1-hydroxy-2-iodophosphirane 1-oxide,N,O=P1(O)C(I)C1,"InChI=1S/C2H4IO2P/c3-2-1-6(2,4)5/h2H,1H2,(H,4,5)",InChIKey=NXKOJPVFBJBRGV-UHFFFAOYSA-N,270.54,Pr,   270.54(BP est)     28.71(MP est)      ----(BP exp)      ----(MP exp)  O=P1(O)C(I)C1 ,28.71,Pred,N
C3H5FIP,PC(C=C)(F)I,11,6,11681,217.95,(1-fluoro-1-iodoallyl)phosphane,N,PC(C=C)(F)I,"InChI=1S/C3H5FIP/c1-2-3(4,5)6/h2H,1,6H2",InChIKey=KTMZPNIJRDCDRU-UHFFFAOYSA-N,148.48,Pr,   148.48(BP est)    -42.94(MP est)      ----(BP exp)      ----(MP exp)  PC(C=C)(F)I ,-42.94,Pred,N
C3H5FIP,PC(F)C(I)=C,11,6,11682,217.95,(1-fluoro-2-iodoallyl)phosphane,N,PC(F)C(I)=C,"InChI=1S/C3H5FIP/c1-2(5)3(4)6/h3H,1,6H2",InChIKey=FKZCLCLKEJTPSH-UHFFFAOYSA-N,151.2,Pr,   151.20(BP est)    -57.83(MP est)      ----(BP exp)      ----(MP exp)  PC(F)C(I)=C ,-57.83,Pred,N
C3H5FIP,CPC(F)=CI,11,6,11683,217.95,(1-fluoro-2-iodovinyl)(methyl)phosphane,N,CPC(F)=CI,"InChI=1S/C3H5FIP/c1-6-3(4)2-5/h2,6H,1H3",InChIKey=YNPXMFKRXPHBSG-UHFFFAOYSA-N,153.97,Pr,   153.97(BP est)    -59.37(MP est)      ----(BP exp)      ----(MP exp)  CPC(F)=CI ,-59.37,Pred,N
C3H5FIP,PC(F)C=CI,11,6,11684,217.95,(1-fluoro-3-iodoallyl)phosphane,N,PC(F)C=CI,"InChI=1S/C3H5FIP/c4-3(6)1-2-5/h1-3H,6H2",InChIKey=BOJGPBVRTYDJKL-UHFFFAOYSA-N,165.44,Pr,   165.44(BP est)    -48.36(MP est)      ----(BP exp)      ----(MP exp)  PC(F)C=CI ,-48.36,Pred,N
C3H5FIP,ICPC(F)=C,11,6,11685,217.95,(1-fluorovinyl)(iodomethyl)phosphane,N,ICPC(F)=C,"InChI=1S/C3H5FIP/c1-3(4)6-2-5/h6H,1-2H2",InChIKey=UNQPWJXUPJSWFF-UHFFFAOYSA-N,145.53,Pr,   145.53(BP est)    -60.17(MP est)      ----(BP exp)      ----(MP exp)  ICPC(F)=C ,-60.17,Pred,N
C3H5FIP,PC(I)C(F)=C,11,6,11686,217.95,(2-fluoro-1-iodoallyl)phosphane,N,PC(I)C(F)=C,"InChI=1S/C3H5FIP/c1-2(4)3(5)6/h3H,1,6H2",InChIKey=PCLFGXDXCGSNSK-UHFFFAOYSA-N,151.2,Pr,   151.20(BP est)    -57.83(MP est)      ----(BP exp)      ----(MP exp)  PC(I)C(F)=C ,-57.83,Pred,N
C3H5FIP,CPC(I)=CF,11,6,11687,217.95,(2-fluoro-1-iodovinyl)(methyl)phosphane,N,CPC(I)=CF,"InChI=1S/C3H5FIP/c1-6-3(5)2-4/h2,6H,1H3",InChIKey=BFAGIXJGXAFDJM-UHFFFAOYSA-N,153.97,Pr,   153.97(BP est)    -59.37(MP est)      ----(BP exp)      ----(MP exp)  CPC(I)=CF ,-59.37,Pred,N
C3H5FIP,CPC=C(F)I,11,6,11688,217.95,(2-fluoro-2-iodovinyl)(methyl)phosphane,N,CPC=C(F)I,"InChI=1S/C3H5FIP/c1-6-2-3(4)5/h2,6H,1H3",InChIKey=OKHLSCSNAXCADP-UHFFFAOYSA-N,153.97,Pr,   153.97(BP est)    -59.37(MP est)      ----(BP exp)      ----(MP exp)  CPC=C(F)I ,-59.37,Pred,N
C3H5FIP,PCC(F)=CI,11,6,11689,217.95,(2-fluoro-3-iodoallyl)phosphane,N,PCC(F)=CI,"InChI=1S/C3H5FIP/c4-3(1-5)2-6/h1H,2,6H2",InChIKey=LRIXTPYMQIWTNU-UHFFFAOYSA-N,172.46,Pr,   172.46(BP est)    -45.79(MP est)      ----(BP exp)      ----(MP exp)  PCC(F)=CI ,-45.79,Pred,N
C3H5FIP,ICPC=CF,11,6,11690,217.95,(2-fluorovinyl)(iodomethyl)phosphane,N,ICPC=CF,"InChI=1S/C3H5FIP/c4-1-2-6-3-5/h1-2,6H,3H2",InChIKey=OIHAHILLYRLVNW-UHFFFAOYSA-N,159.92,Pr,   159.92(BP est)    -50.65(MP est)      ----(BP exp)      ----(MP exp)  ICPC=CF ,-50.65,Pred,N
C3H5FIP,PC(I)C=CF,11,6,11691,217.95,(3-fluoro-1-iodoallyl)phosphane,N,PC(I)C=CF,"InChI=1S/C3H5FIP/c4-2-1-3(5)6/h1-3H,6H2",InChIKey=MELBNVZDVVMRBB-UHFFFAOYSA-N,165.44,Pr,   165.44(BP est)    -48.36(MP est)      ----(BP exp)      ----(MP exp)  PC(I)C=CF ,-48.36,Pred,N
C3H5FIP,PCC(I)=CF,11,6,11692,217.95,(3-fluoro-2-iodoallyl)phosphane,N,PCC(I)=CF,"InChI=1S/C3H5FIP/c4-1-3(5)2-6/h1H,2,6H2",InChIKey=WSMWMAWGLYEORU-UHFFFAOYSA-N,172.46,Pr,   172.46(BP est)    -45.79(MP est)      ----(BP exp)      ----(MP exp)  PCC(I)=CF ,-45.79,Pred,N
C3H5FIP,PCC=C(F)I,11,6,11693,217.95,(3-fluoro-3-iodoallyl)phosphane,N,PCC=C(F)I,"InChI=1S/C3H5FIP/c4-3(5)1-2-6/h1H,2,6H2",InChIKey=SMDSEAXZDYGGGU-UHFFFAOYSA-N,172.46,Pr,   172.46(BP est)    -45.79(MP est)      ----(BP exp)      ----(MP exp)  PCC=C(F)I ,-45.79,Pred,N
C3H5FIP,FC(PC=C)I,11,6,11694,217.95,(fluoroiodomethyl)(vinyl)phosphane,N,FC(PC=C)I,"InChI=1S/C3H5FIP/c1-2-6-3(4)5/h2-3,6H,1H2",InChIKey=IBLARUILBPXUJW-UHFFFAOYSA-N,138.14,Pr,   138.14(BP est)    -62.85(MP est)      ----(BP exp)      ----(MP exp)  FC(PC=C)I ,-62.85,Pred,N
C3H5FIP,FCPC(I)=C,11,6,11695,217.95,(fluoromethyl)(1-iodovinyl)phosphane,N,FCPC(I)=C,"InChI=1S/C3H5FIP/c1-3(5)6-2-4/h6H,1-2H2",InChIKey=CDKUNIORHJHAHZ-UHFFFAOYSA-N,145.53,Pr,   145.53(BP est)    -60.17(MP est)      ----(BP exp)      ----(MP exp)  FCPC(I)=C ,-60.17,Pred,N
C3H5FIP,FCPC=CI,11,6,11696,217.95,(fluoromethyl)(2-iodovinyl)phosphane,N,FCPC=CI,"InChI=1S/C3H5FIP/c4-3-6-2-1-5/h1-2,6H,3H2",InChIKey=QWZRAWYUMIRTGN-UHFFFAOYSA-N,159.92,Pr,   159.92(BP est)    -50.65(MP est)      ----(BP exp)      ----(MP exp)  FCPC=CI ,-50.65,Pred,N
C3H5FIP,FC(P1CC1)I,11,6,11697,217.95,1-(fluoroiodomethyl)phosphirane,N,FC(P1CC1)I,"InChI=1S/C3H5FIP/c4-3(5)6-1-2-6/h3H,1-2H2",InChIKey=QELWSRJTBHVAPI-UHFFFAOYSA-N,148.92,Pr,   148.92(BP est)    -46.66(MP est)      ----(BP exp)      ----(MP exp)  FC(P1CC1)I ,-46.66,Pred,N
C3H5FIP,FCP1C(I)C1,11,6,11698,217.95,1-(fluoromethyl)-2-iodophosphirane,N,FCP1C(I)C1,"InChI=1S/C3H5FIP/c4-2-6-1-3(6)5/h3H,1-2H2",InChIKey=CGGSONLEALDYEQ-UHFFFAOYSA-N,155.8,Pr,   155.80(BP est)    -39.27(MP est)      ----(BP exp)      ----(MP exp)  FCP1C(I)C1 ,-39.27,Pred,N
C3H5FIP,ICP1C(F)C1,11,6,11699,217.95,2-fluoro-1-(iodomethyl)phosphirane,N,ICP1C(F)C1,"InChI=1S/C3H5FIP/c4-3-1-6(3)2-5/h3H,1-2H2",InChIKey=VNWCYLNAHGJBSH-UHFFFAOYSA-N,155.8,Pr,   155.80(BP est)    -39.27(MP est)      ----(BP exp)      ----(MP exp)  ICP1C(F)C1 ,-39.27,Pred,N
C3H5FIP,CP1C(I)(F)C1,11,6,11700,217.95,2-fluoro-2-iodo-1-methylphosphirane,N,CP1C(I)(F)C1,"InChI=1S/C3H5FIP/c1-6-2-3(6,4)5/h2H2,1H3",InChIKey=LHGSMELDRDKGSA-UHFFFAOYSA-N,144.16,Pr,   144.16(BP est)    -30.72(MP est)      ----(BP exp)      ----(MP exp)  CP1C(I)(F)C1 ,-30.72,Pred,N
C3H5FIP,FC1(I)CCP1,11,6,11701,217.95,2-fluoro-2-iodophosphetane,N,FC1(I)CCP1,"InChI=1S/C3H5FIP/c4-3(5)1-2-6-3/h6H,1-2H2",InChIKey=YUMHZWWYQQOOFI-UHFFFAOYSA-N,145.31,Pr,   145.31(BP est)    -31.46(MP est)      ----(BP exp)      ----(MP exp)  FC1(I)CCP1 ,-31.46,Pred,N
C3H5FIP,CP1C(F)C1I,11,6,11702,217.95,2-fluoro-3-iodo-1-methylphosphirane,N,CP1C(F)C1I,"InChI=1S/C3H5FIP/c1-6-2(4)3(6)5/h2-3H,1H3",InChIKey=VXJOAMPQJUSMIT-UHFFFAOYSA-N,149.43,Pr,   149.43(BP est)    -43.25(MP est)      ----(BP exp)      ----(MP exp)  CP1C(F)C1I ,-43.25,Pred,N
C3H5FIP,FC1C(I)CP1,11,6,11703,217.95,2-fluoro-3-iodophosphetane,N,FC1C(I)CP1,"InChI=1S/C3H5FIP/c4-3-2(5)1-6-3/h2-3,6H,1H2",InChIKey=KMCOLBOKZCMIIT-UHFFFAOYSA-N,150.57,Pr,   150.57(BP est)    -43.99(MP est)      ----(BP exp)      ----(MP exp)  FC1C(I)CP1 ,-43.99,Pred,N
C3H5FIP,IC1CC(F)P1,11,6,11704,217.95,2-fluoro-4-iodophosphetane,N,IC1CC(F)P1,"InChI=1S/C3H5FIP/c4-2-1-3(5)6-2/h2-3,6H,1H2",InChIKey=KSBVLELQGDKQPQ-UHFFFAOYSA-N,150.57,Pr,   150.57(BP est)    -43.99(MP est)      ----(BP exp)      ----(MP exp)  IC1CC(F)P1 ,-43.99,Pred,N
C3H5FIP,IC1C(F)CP1,11,6,11705,217.95,3-fluoro-2-iodophosphetane,N,IC1C(F)CP1,"InChI=1S/C3H5FIP/c4-2-1-6-3(2)5/h2-3,6H,1H2",InChIKey=BBXCIMORKYCDCF-UHFFFAOYSA-N,150.57,Pr,   150.57(BP est)    -43.99(MP est)      ----(BP exp)      ----(MP exp)  IC1C(F)CP1 ,-43.99,Pred,N
C3H5FIP,FC1(I)CPC1,11,6,11706,217.95,3-fluoro-3-iodophosphetane,N,FC1(I)CPC1,"InChI=1S/C3H5FIP/c4-3(5)1-6-2-3/h6H,1-2H2",InChIKey=ORXSTQVFMOFWOQ-UHFFFAOYSA-N,145.31,Pr,   145.31(BP est)    -31.46(MP est)      ----(BP exp)      ----(MP exp)  FC1(I)CPC1 ,-31.46,Pred,N
C3H8IOP,IC(POC)C,14,6,11707,217.974,(1-iodoethyl)(methoxy)phosphane,N,IC(POC)C,"InChI=1S/C3H8IOP/c1-3(4)6-5-2/h3,6H,1-2H3",InChIKey=ZGJPFWWFSPYELR-UHFFFAOYSA-N,160.57,Pr,   160.57(BP est)    -44.60(MP est)      ----(BP exp)      ----(MP exp)  IC(POC)C ,-44.6,Pred,N
C3H8IOP,O=P(C)C(I)C,14,6,11708,217.974,(1-iodoethyl)(methyl)phosphine oxide,N,O=P(C)C(I)C,"InChI=1S/C3H8IOP/c1-3(4)6(2)5/h3,6H,1-2H3",InChIKey=LFHWWWSEPSGIHF-UHFFFAOYSA-N,196.33,Pr,   196.33(BP est)    -27.78(MP est)      ----(BP exp)      ----(MP exp)  O=P(C)C(I)C ,-27.78,Pred,N
C3H8IOP,ICCPOC,14,6,11709,217.974,(2-iodoethyl)(methoxy)phosphane,N,ICCPOC,"InChI=1S/C3H8IOP/c1-5-6-3-2-4/h6H,2-3H2,1H3",InChIKey=NIAVFUGWLMSZKD-UHFFFAOYSA-N,173.44,Pr,   173.44(BP est)    -33.34(MP est)      ----(BP exp)      ----(MP exp)  ICCPOC ,-33.34,Pred,N
C3H8IOP,O=P(C)CCI,14,6,11710,217.974,(2-iodoethyl)(methyl)phosphine oxide,N,O=P(C)CCI,"InChI=1S/C3H8IOP/c1-6(5)3-2-4/h6H,2-3H2,1H3",InChIKey=XJEMWIMBMOUBSW-UHFFFAOYSA-N,208.26,Pr,   208.26(BP est)    -16.79(MP est)      ----(BP exp)      ----(MP exp)  O=P(C)CCI ,-16.79,Pred,N
C3H8IOP,CP(CI)OC,14,6,11711,217.974,(iodomethyl)(methoxy)(methyl)phosphane,N,CP(CI)OC,"InChI=1S/C3H8IOP/c1-5-6(2)3-4/h3H2,1-2H3",InChIKey=PSAFVMBTHFKEGV-UHFFFAOYSA-N,174.29,Pr,   174.29(BP est)    -33.78(MP est)      ----(BP exp)      ----(MP exp)  CP(CI)OC ,-33.78,Pred,N
C3H8IOP,O=P(CI)(C)C,14,6,11712,217.974,(iodomethyl)dimethylphosphine oxide,N,O=P(CI)(C)C,"InChI=1S/C3H8IOP/c1-6(2,5)3-4/h3H2,1-2H3",InChIKey=MSVQAWTWBISPAE-UHFFFAOYSA-N,206.45,Pr,   206.45(BP est)    -25.51(MP est)      ----(BP exp)      ----(MP exp)  O=P(CI)(C)C ,-25.51,Pred,N
C3H8IOP,O=P(CI)CC,14,6,11714,217.974,ethyl(iodomethyl)phosphine oxide,N,O=P(CI)CC,"InChI=1S/C3H8IOP/c1-2-6(5)3-4/h6H,2-3H2,1H3",InChIKey=PXQFHVORQDDWBZ-UHFFFAOYSA-N,208.26,Pr,   208.26(BP est)    -16.79(MP est)      ----(BP exp)      ----(MP exp)  O=P(CI)CC ,-16.79,Pred,N
C2H3FIOP,O=PC(C)(F)I,9,6,11883,219.922,(1-fluoro-1-iodoethyl)(oxo)phosphane,N,O=PC(C)(F)I,"InChI=1S/C2H3FIOP/c1-2(3,4)6-5/h1H3",InChIKey=MXGMQRXEPCPYIW-UHFFFAOYSA-N,171.45,Pr,   171.45(BP est)    -23.48(MP est)      ----(BP exp)      ----(MP exp)  O=PC(C)(F)I ,-23.48,Pred,N
C2H3FIOP,O=PC(F)CI,9,6,11884,219.922,(1-fluoro-2-iodoethyl)(oxo)phosphane,N,O=PC(F)CI,"InChI=1S/C2H3FIOP/c3-2(1-4)6-5/h2H,1H2",InChIKey=CAWBNVKKNQQLSO-UHFFFAOYSA-N,179.77,Pr,   179.77(BP est)    -29.77(MP est)      ----(BP exp)      ----(MP exp)  O=PC(F)CI ,-29.77,Pred,N
C2H3FIOP,O=PC(I)CF,9,6,11886,219.922,(2-fluoro-1-iodoethyl)(oxo)phosphane,N,O=PC(I)CF,"InChI=1S/C2H3FIOP/c3-1-2(4)6-5/h2H,1H2",InChIKey=URJOWJOPUYVWDC-UHFFFAOYSA-N,179.77,Pr,   179.77(BP est)    -29.77(MP est)      ----(BP exp)      ----(MP exp)  O=PC(I)CF ,-29.77,Pred,N
C2H3FIOP,O=PCC(F)I,9,6,11888,219.922,(2-fluoro-2-iodoethyl)(oxo)phosphane,N,O=PCC(F)I,"InChI=1S/C2H3FIOP/c3-2(4)1-6-5/h2H,1H2",InChIKey=NLZUUJPCVYSBTQ-UHFFFAOYSA-N,179.77,Pr,   179.77(BP est)    -29.77(MP est)      ----(BP exp)      ----(MP exp)  O=PCC(F)I ,-29.77,Pred,N
C2H3FIOP,O=P1C(I)(F)C1,9,6,11891,219.922,2-fluoro-2-iodophosphirane 1-oxide,N,O=P1C(I)(F)C1,"InChI=1S/C2H3FIOP/c3-2(4)1-6(2)5/h6H,1H2",InChIKey=CCTPLQJVYPSCTB-UHFFFAOYSA-N,181.04,Pr,   181.04(BP est)     -7.40(MP est)      ----(BP exp)      ----(MP exp)  O=P1C(I)(F)C1 ,-7.4,Pred,N
C2H3FIOP,O=P1C(F)C1I,9,6,11893,219.922,2-fluoro-3-iodophosphirane 1-oxide,N,O=P1C(F)C1I,"InChI=1S/C2H3FIOP/c3-1-2(4)6(1)5/h1-2,6H",InChIKey=JYBNKZUEKINVOB-UHFFFAOYSA-N,185.95,Pr,   185.95(BP est)    -20.04(MP est)      ----(BP exp)      ----(MP exp)  O=P1C(F)C1I ,-20.04,Pred,N