Formula,SMILES,Tot_atoms,Tot_nH_atoms,Dataset_no,Molecular_weight,IUPAC_chemname,Metalloid,EPISUITE,InChI_Code,InChI_Key,Boiling_Point,BP_basis,EPIsuite_output,MP,Basis,Life
C3H7BrIP,CP(C)C(Br)I,13,6,13160,280.871,(bromoiodomethyl)dimethylphosphane,N,CP(C)C(Br)I,"InChI=1S/C3H7BrIP/c1-6(2)3(4)5/h3H,1-2H3",InChIKey=HWLGFYRNJFZQOH-UHFFFAOYSA-N,206.81,Pr,   206.81(BP est)    -13.00(MP est)      ----(BP exp)      ----(MP exp)  CP(C)C(Br)I ,-13,Pred,N
C3H7BrIP,BrCPC(I)C,13,6,13161,280.871,(bromomethyl)(1-iodoethyl)phosphane,N,BrCPC(I)C,"InChI=1S/C3H7BrIP/c1-3(5)6-2-4/h3,6H,2H2,1H3",InChIKey=RZWZVQMMTWVLEA-UHFFFAOYSA-N,206.02,Pr,   206.02(BP est)    -12.55(MP est)      ----(BP exp)      ----(MP exp)  BrCPC(I)C ,-12.55,Pred,N
C3H7BrIP,BrCPCCI,13,6,13162,280.871,(bromomethyl)(2-iodoethyl)phosphane,N,BrCPCCI,"InChI=1S/C3H7BrIP/c4-3-6-2-1-5/h6H,1-3H2",InChIKey=VMXWLZLPWNJGTG-UHFFFAOYSA-N,217.7,Pr,   217.70(BP est)     -1.64(MP est)      ----(BP exp)      ----(MP exp)  BrCPCCI ,-1.64,Pred,N
C3H7BrIP,CP(CBr)CI,13,6,13163,280.871,(bromomethyl)(iodomethyl)(methyl)phosphane,N,CP(CBr)CI,"InChI=1S/C3H7BrIP/c1-6(2-4)3-5/h2-3H2,1H3",InChIKey=XGPMEQJBBFMAAC-UHFFFAOYSA-N,218.46,Pr,   218.46(BP est)     -2.10(MP est)      ----(BP exp)      ----(MP exp)  CP(CBr)CI ,-2.1,Pred,N
C2H2BrFIP,PC(Br)=C(F)I,8,6,13199,282.819,(1-bromo-2-fluoro-2-iodovinyl)phosphane,N,PC(Br)=C(F)I,InChI=1S/C2H2BrFIP/c3-1(6)2(4)5/h6H2,InChIKey=ZUOPTXMQMAEASY-UHFFFAOYSA-N,212.3,Pr,   212.30(BP est)    -16.87(MP est)      ----(BP exp)      ----(MP exp)  PC(Br)=C(F)I ,-16.87,Pred,N
C2H2BrFIP,PC(F)=C(Br)I,8,6,13200,282.819,(2-bromo-1-fluoro-2-iodovinyl)phosphane,N,PC(F)=C(Br)I,InChI=1S/C2H2BrFIP/c3-1(5)2(4)6/h6H2,InChIKey=MGIQLMJJFGOGKH-UHFFFAOYSA-N,212.3,Pr,   212.30(BP est)    -16.87(MP est)      ----(BP exp)      ----(MP exp)  PC(F)=C(Br)I ,-16.87,Pred,N
C2H2BrFIP,PC(I)=C(Br)F,8,6,13201,282.819,(2-bromo-2-fluoro-1-iodovinyl)phosphane,N,PC(I)=C(Br)F,InChI=1S/C2H2BrFIP/c3-1(4)2(5)6/h6H2,InChIKey=IBHWKSQCKMFAAQ-UHFFFAOYSA-N,212.3,Pr,   212.30(BP est)    -16.87(MP est)      ----(BP exp)      ----(MP exp)  PC(I)=C(Br)F ,-16.87,Pred,N
C2H2BrFIP,IC1C(F)(Br)P1,8,6,13202,282.819,2-bromo-2-fluoro-3-iodophosphirane,N,IC1C(F)(Br)P1,"InChI=1S/C2H2BrFIP/c3-2(4)1(5)6-2/h1,6H",InChIKey=RTGLPCQIVMRGKU-UHFFFAOYSA-N,185.15,Pr,   185.15(BP est)      4.08(MP est)      ----(BP exp)      ----(MP exp)  IC1C(F)(Br)P1 ,4.08,Pred,N
C2H2BrFIP,FC1C(I)(Br)P1,8,6,13203,282.819,2-bromo-3-fluoro-2-iodophosphirane,N,FC1C(I)(Br)P1,"InChI=1S/C2H2BrFIP/c3-2(5)1(4)6-2/h1,6H",InChIKey=GUUFGJLGSQZGPB-UHFFFAOYSA-N,185.15,Pr,   185.15(BP est)      4.08(MP est)      ----(BP exp)      ----(MP exp)  FC1C(I)(Br)P1 ,4.08,Pred,N
C2H2BrFIP,BrC1C(I)(F)P1,8,6,13204,282.819,3-bromo-2-fluoro-2-iodophosphirane,N,BrC1C(I)(F)P1,"InChI=1S/C2H2BrFIP/c3-1-2(4,5)6-1/h1,6H",InChIKey=LWSXVFAZSTXKIC-UHFFFAOYSA-N,185.15,Pr,   185.15(BP est)      4.08(MP est)      ----(BP exp)      ----(MP exp)  BrC1C(I)(F)P1 ,4.08,Pred,N
C2H5BrIOP,BrC(POC)I,11,6,13205,282.843,(bromoiodomethyl)(methoxy)phosphane,N,BrC(POC)I,"InChI=1S/C2H5BrIOP/c1-5-6-2(3)4/h2,6H,1H3",InChIKey=CTOZNRCLHXBMRV-UHFFFAOYSA-N,206.79,Pr,   206.79(BP est)     -6.84(MP est)      ----(BP exp)      ----(MP exp)  BrC(POC)I ,-6.84,Pred,N
C2H5BrIOP,O=P(C)C(Br)I,11,6,13206,282.843,(bromoiodomethyl)(methyl)phosphine oxide,N,O=P(C)C(Br)I,"InChI=1S/C2H5BrIOP/c1-6(5)2(3)4/h2,6H,1H3",InChIKey=ODJDASLVNZNIGE-UHFFFAOYSA-N,239.07,Pr,   239.07(BP est)      8.96(MP est)      ----(BP exp)      ----(MP exp)  O=P(C)C(Br)I ,8.96,Pred,N
C2H5BrIOP,O=P(CBr)CI,11,6,13207,282.843,(bromomethyl)(iodomethyl)phosphine oxide,N,O=P(CBr)CI,"InChI=1S/C2H5BrIOP/c3-1-6(5)2-4/h6H,1-2H2",InChIKey=LWMAJWQJMPQYCU-UHFFFAOYSA-N,249.78,Pr,   249.78(BP est)     19.59(MP est)      ----(BP exp)      ----(MP exp)  O=P(CBr)CI ,19.59,Pred,N
CBrFIOP,O=PC(I)(Br)F,6,6,13241,284.791,(bromofluoroiodomethyl)(oxo)phosphane,N,O=PC(I)(Br)F,"InChI=1S/CBrFIOP/c2-1(3,4)6-5",InChIKey=SBBNIWNNQJXCIN-UHFFFAOYSA-N,216.64,Pr,   216.64(BP est)     13.97(MP est)      ----(BP exp)      ----(MP exp)  O=PC(I)(Br)F ,13.97,Pred,N
C2H4BrFIP,PC(CI)(Br)F,10,6,13242,284.835,(1-bromo-1-fluoro-2-iodoethyl)phosphane,N,PC(CI)(Br)F,"InChI=1S/C2H4BrFIP/c3-2(4,6)1-5/h1,6H2",InChIKey=LIGZDNQDDHQTRA-UHFFFAOYSA-N,197.31,Pr,   197.31(BP est)     -3.54(MP est)      ----(BP exp)      ----(MP exp)  PC(CI)(Br)F ,-3.54,Pred,N
C2H4BrFIP,PC(CF)(Br)I,10,6,13243,284.835,(1-bromo-2-fluoro-1-iodoethyl)phosphane,N,PC(CF)(Br)I,"InChI=1S/C2H4BrFIP/c3-2(5,6)1-4/h1,6H2",InChIKey=HBFLZIAZLXNOHR-UHFFFAOYSA-N,197.31,Pr,   197.31(BP est)     -3.54(MP est)      ----(BP exp)      ----(MP exp)  PC(CF)(Br)I ,-3.54,Pred,N
C2H4BrFIP,PC(Br)C(F)I,10,6,13244,284.835,(1-bromo-2-fluoro-2-iodoethyl)phosphane,N,PC(Br)C(F)I,"InChI=1S/C2H4BrFIP/c3-1(6)2(4)5/h1-2H,6H2",InChIKey=MCMIYCVZMSTYHP-UHFFFAOYSA-N,193.16,Pr,   193.16(BP est)    -20.96(MP est)      ----(BP exp)      ----(MP exp)  PC(Br)C(F)I ,-20.96,Pred,N
C2H4BrFIP,PC(CBr)(F)I,10,6,13245,284.835,(2-bromo-1-fluoro-1-iodoethyl)phosphane,N,PC(CBr)(F)I,"InChI=1S/C2H4BrFIP/c3-1-2(4,5)6/h1,6H2",InChIKey=YKGBMMOUVDFQOY-UHFFFAOYSA-N,197.31,Pr,   197.31(BP est)     -3.54(MP est)      ----(BP exp)      ----(MP exp)  PC(CBr)(F)I ,-3.54,Pred,N
C2H4BrFIP,PC(F)C(Br)I,10,6,13246,284.835,(2-bromo-1-fluoro-2-iodoethyl)phosphane,N,PC(F)C(Br)I,"InChI=1S/C2H4BrFIP/c3-1(5)2(4)6/h1-2H,6H2",InChIKey=USTHOPYEBWFEJD-UHFFFAOYSA-N,193.16,Pr,   193.16(BP est)    -20.96(MP est)      ----(BP exp)      ----(MP exp)  PC(F)C(Br)I ,-20.96,Pred,N
C2H4BrFIP,PC(I)C(Br)F,10,6,13247,284.835,(2-bromo-2-fluoro-1-iodoethyl)phosphane,N,PC(I)C(Br)F,"InChI=1S/C2H4BrFIP/c3-1(4)2(5)6/h1-2H,6H2",InChIKey=YRXCEARGCQWYDZ-UHFFFAOYSA-N,193.16,Pr,   193.16(BP est)    -20.96(MP est)      ----(BP exp)      ----(MP exp)  PC(I)C(Br)F ,-20.96,Pred,N
C2H4BrFIP,PCC(I)(Br)F,10,6,13248,284.835,(2-bromo-2-fluoro-2-iodoethyl)phosphane,N,PCC(I)(Br)F,"InChI=1S/C2H4BrFIP/c3-2(4,5)1-6/h1,6H2",InChIKey=CQPNPDPUICSXQI-UHFFFAOYSA-N,197.31,Pr,   197.31(BP est)     -3.54(MP est)      ----(BP exp)      ----(MP exp)  PCC(I)(Br)F ,-3.54,Pred,N
C2H4BrFIP,CPC(I)(Br)F,10,6,13249,284.835,(bromofluoroiodomethyl)(methyl)phosphane,N,CPC(I)(Br)F,"InChI=1S/C2H4BrFIP/c1-6-2(3,4)5/h6H,1H3",InChIKey=KBFDDYIALLBMLJ-UHFFFAOYSA-N,179.77,Pr,   179.77(BP est)    -16.84(MP est)      ----(BP exp)      ----(MP exp)  CPC(I)(Br)F ,-16.84,Pred,N
C2H4BrFIP,ICPC(Br)F,10,6,13250,284.835,(bromofluoromethyl)(iodomethyl)phosphane,N,ICPC(Br)F,"InChI=1S/C2H4BrFIP/c3-2(4)6-1-5/h2,6H,1H2",InChIKey=LLFFVQVQVNSNJL-UHFFFAOYSA-N,187.94,Pr,   187.94(BP est)    -23.17(MP est)      ----(BP exp)      ----(MP exp)  ICPC(Br)F ,-23.17,Pred,N
C2H4BrFIP,FCPC(Br)I,10,6,13251,284.835,(bromoiodomethyl)(fluoromethyl)phosphane,N,FCPC(Br)I,"InChI=1S/C2H4BrFIP/c3-2(5)6-1-4/h2,6H,1H2",InChIKey=NBPOQJJADZGFDT-UHFFFAOYSA-N,187.94,Pr,   187.94(BP est)    -23.17(MP est)      ----(BP exp)      ----(MP exp)  FCPC(Br)I ,-23.17,Pred,N
C2H4BrFIP,BrCPC(F)I,10,6,13252,284.835,(bromomethyl)(fluoroiodomethyl)phosphane,N,BrCPC(F)I,"InChI=1S/C2H4BrFIP/c3-1-6-2(4)5/h2,6H,1H2",InChIKey=KFCNYDSEHGUUTP-UHFFFAOYSA-N,187.94,Pr,   187.94(BP est)    -23.17(MP est)      ----(BP exp)      ----(MP exp)  BrCPC(F)I ,-23.17,Pred,N
C2H2Br3P,PC(Br)=C(Br)Br,8,6,13301,296.724,"(1,2,2-tribromovinyl)phosphane",N,PC(Br)=C(Br)Br,InChI=1S/C2H2Br3P/c3-1(4)2(5)6/h6H2,InChIKey=LEFVOWKLHKDIKD-UHFFFAOYSA-N,243.58,Pr,   243.58(BP est)     22.74(MP est)      ----(BP exp)      ----(MP exp)  PC(Br)=C(Br)Br ,22.74,Pred,N
C2H2Br3P,BrC1C(Br)(Br)P1,8,6,13302,296.724,"2,2,3-tribromophosphirane",N,BrC1C(Br)(Br)P1,"InChI=1S/C2H2Br3P/c3-1-2(4,5)6-1/h1,6H",InChIKey=IHQIBGBEEOESGT-UHFFFAOYSA-N,218.49,Pr,   218.49(BP est)     34.16(MP est)      ----(BP exp)      ----(MP exp)  BrC1C(Br)(Br)P1 ,34.16,Pred,N
CBr3OP,O=PC(Br)(Br)Br,6,6,13313,298.696,oxo(tribromomethyl)phosphane,N,O=PC(Br)(Br)Br,"InChI=1S/CBr3OP/c2-1(3,4)6-5",InChIKey=ONIWXLSITSCSEC-UHFFFAOYSA-N,247.57,Pr,   247.57(BP est)     45.60(MP est)      ----(BP exp)      ----(MP exp)  O=PC(Br)(Br)Br ,45.6,Pred,N
C2H4Br3P,PC(CBr)(Br)Br,10,6,13314,298.74,"(1,1,2-tribromoethyl)phosphane",N,PC(CBr)(Br)Br,"InChI=1S/C2H4Br3P/c3-1-2(4,5)6/h1,6H2",InChIKey=ULIXGLGMVRUHAA-UHFFFAOYSA-N,229.74,Pr,   229.74(BP est)     36.41(MP est)      ----(BP exp)      ----(MP exp)  PC(CBr)(Br)Br ,36.41,Pred,N
C2H4Br3P,PC(Br)C(Br)Br,10,6,13315,298.74,"(1,2,2-tribromoethyl)phosphane",N,PC(Br)C(Br)Br,"InChI=1S/C2H4Br3P/c3-1(4)2(5)6/h1-2H,6H2",InChIKey=HLVGPMQIWIKKKJ-UHFFFAOYSA-N,225.9,Pr,   225.90(BP est)     19.08(MP est)      ----(BP exp)      ----(MP exp)  PC(Br)C(Br)Br ,19.08,Pred,N
C2H4Br3P,PCC(Br)(Br)Br,10,6,13316,298.74,"(2,2,2-tribromoethyl)phosphane",N,PCC(Br)(Br)Br,"InChI=1S/C2H4Br3P/c3-2(4,5)1-6/h1,6H2",InChIKey=LUHIVJSFPNJZHY-UHFFFAOYSA-N,229.74,Pr,   229.74(BP est)     36.41(MP est)      ----(BP exp)      ----(MP exp)  PCC(Br)(Br)Br ,36.41,Pred,N
C2H4Br3P,BrCPC(Br)Br,10,6,13317,298.74,(bromomethyl)(dibromomethyl)phosphane,N,BrCPC(Br)Br,"InChI=1S/C2H4Br3P/c3-1-6-2(4)5/h2,6H,1H2",InChIKey=ARPPCPDUFKHWLV-UHFFFAOYSA-N,221.08,Pr,   221.08(BP est)     16.98(MP est)      ----(BP exp)      ----(MP exp)  BrCPC(Br)Br ,16.98,Pred,N
C2H4Br3P,CPC(Br)(Br)Br,10,6,13318,298.74,methyl(tribromomethyl)phosphane,N,CPC(Br)(Br)Br,"InChI=1S/C2H4Br3P/c1-6-2(3,4)5/h6H,1H3",InChIKey=BLMVXTSLANPNPQ-UHFFFAOYSA-N,213.51,Pr,   213.51(BP est)     23.48(MP est)      ----(BP exp)      ----(MP exp)  CPC(Br)(Br)Br ,23.48,Pred,N
C2H2BrClIP,PC(Br)=C(Cl)I,8,6,13319,299.27,(1-bromo-2-chloro-2-iodovinyl)phosphane,N,PC(Br)=C(Cl)I,InChI=1S/C2H2BrClIP/c3-1(6)2(4)5/h6H2,InChIKey=MCNWOXIFYIFMRR-UHFFFAOYSA-N,238.53,Pr,   238.53(BP est)      5.45(MP est)      ----(BP exp)      ----(MP exp)  PC(Br)=C(Cl)I ,5.45,Pred,N
C2H2BrClIP,PC(Cl)=C(Br)I,8,6,13320,299.27,(2-bromo-1-chloro-2-iodovinyl)phosphane,N,PC(Cl)=C(Br)I,InChI=1S/C2H2BrClIP/c3-1(5)2(4)6/h6H2,InChIKey=CURGDGDEIVQGCR-UHFFFAOYSA-N,238.53,Pr,   238.53(BP est)      5.45(MP est)      ----(BP exp)      ----(MP exp)  PC(Cl)=C(Br)I ,5.45,Pred,N
C2H2BrClIP,PC(I)=C(Br)Cl,8,6,13321,299.27,(2-bromo-2-chloro-1-iodovinyl)phosphane,N,PC(I)=C(Br)Cl,InChI=1S/C2H2BrClIP/c3-1(4)2(5)6/h6H2,InChIKey=ZTFFAAVAMYAQAG-UHFFFAOYSA-N,238.53,Pr,   238.53(BP est)      5.45(MP est)      ----(BP exp)      ----(MP exp)  PC(I)=C(Br)Cl ,5.45,Pred,N
C2H2BrClIP,IC1C(Cl)(Br)P1,8,6,13322,299.27,2-bromo-2-chloro-3-iodophosphirane,N,IC1C(Cl)(Br)P1,"InChI=1S/C2H2BrClIP/c3-2(4)1(5)6-2/h1,6H",InChIKey=OSHGGPJPEMHMMA-UHFFFAOYSA-N,214.81,Pr,   214.81(BP est)     27.40(MP est)      ----(BP exp)      ----(MP exp)  IC1C(Cl)(Br)P1 ,27.4,Pred,N
C2H2BrClIP,ClC1C(I)(Br)P1,8,6,13323,299.27,2-bromo-3-chloro-2-iodophosphirane,N,ClC1C(I)(Br)P1,"InChI=1S/C2H2BrClIP/c3-2(5)1(4)6-2/h1,6H",InChIKey=XYJSCENDXZDQBY-UHFFFAOYSA-N,225.14,Pr,   225.14(BP est)     30.42(MP est)      ----(BP exp)      ----(MP exp)  ClC1C(I)(Br)P1 ,30.42,Pred,N
C2H2BrClIP,BrC1C(I)(Cl)P1,8,6,13324,299.27,3-bromo-2-chloro-2-iodophosphirane,N,BrC1C(I)(Cl)P1,"InChI=1S/C2H2BrClIP/c3-1-2(4,5)6-1/h1,6H",InChIKey=UZNPKCWCXDZVOL-UHFFFAOYSA-N,214.81,Pr,   214.81(BP est)     27.40(MP est)      ----(BP exp)      ----(MP exp)  BrC1C(I)(Cl)P1 ,27.4,Pred,N
CBrClIOP,O=PC(I)(Br)Cl,6,6,13331,301.242,(bromochloroiodomethyl)(oxo)phosphane,N,O=PC(I)(Br)Cl,"InChI=1S/CBrClIOP/c2-1(3,4)6-5",InChIKey=DURCZGLVNQEUJD-UHFFFAOYSA-N,244.17,Pr,   244.17(BP est)     36.67(MP est)      ----(BP exp)      ----(MP exp)  O=PC(I)(Br)Cl ,36.67,Pred,N
C2H4BrClIP,PC(CI)(Br)Cl,10,6,13332,301.286,(1-bromo-1-chloro-2-iodoethyl)phosphane,N,PC(CI)(Br)Cl,"InChI=1S/C2H4BrClIP/c3-2(4,6)1-5/h1,6H2",InChIKey=RBONBEJUTMAQKQ-UHFFFAOYSA-N,226.17,Pr,   226.17(BP est)     19.55(MP est)      ----(BP exp)      ----(MP exp)  PC(CI)(Br)Cl ,19.55,Pred,N
C2H4BrClIP,PC(CCl)(Br)I,10,6,13333,301.286,(1-bromo-2-chloro-1-iodoethyl)phosphane,N,PC(CCl)(Br)I,"InChI=1S/C2H4BrClIP/c3-2(5,6)1-4/h1,6H2",InChIKey=ILGNRFFIOBXBJT-UHFFFAOYSA-N,246,Pr,   246.00(BP est)     25.34(MP est)      ----(BP exp)      ----(MP exp)  PC(CCl)(Br)I ,25.34,Pred,N
C2H4BrClIP,PC(Br)C(Cl)I,10,6,13334,301.286,(1-bromo-2-chloro-2-iodoethyl)phosphane,N,PC(Br)C(Cl)I,"InChI=1S/C2H4BrClIP/c3-1(6)2(4)5/h1-2H,6H2",InChIKey=IJKKKKRSPGFRDV-UHFFFAOYSA-N,232.43,Pr,   232.43(BP est)      5.17(MP est)      ----(BP exp)      ----(MP exp)  PC(Br)C(Cl)I ,5.17,Pred,N
C2H4BrClIP,PC(CBr)(Cl)I,10,6,13335,301.286,(2-bromo-1-chloro-1-iodoethyl)phosphane,N,PC(CBr)(Cl)I,"InChI=1S/C2H4BrClIP/c3-1-2(4,5)6/h1,6H2",InChIKey=XYLUAKAXAYZPDM-UHFFFAOYSA-N,226.17,Pr,   226.17(BP est)     19.55(MP est)      ----(BP exp)      ----(MP exp)  PC(CBr)(Cl)I ,19.55,Pred,N
C2H4BrClIP,PC(Cl)C(Br)I,10,6,13336,301.286,(2-bromo-1-chloro-2-iodoethyl)phosphane,N,PC(Cl)C(Br)I,"InChI=1S/C2H4BrClIP/c3-1(5)2(4)6/h1-2H,6H2",InChIKey=DMNTWQRUSUYMHR-UHFFFAOYSA-N,232.43,Pr,   232.43(BP est)      5.17(MP est)      ----(BP exp)      ----(MP exp)  PC(Cl)C(Br)I ,5.17,Pred,N
C2H4BrClIP,PC(I)C(Br)Cl,10,6,13337,301.286,(2-bromo-2-chloro-1-iodoethyl)phosphane,N,PC(I)C(Br)Cl,"InChI=1S/C2H4BrClIP/c3-1(4)2(5)6/h1-2H,6H2",InChIKey=OCUPHJRBYOWYOE-UHFFFAOYSA-N,232.43,Pr,   232.43(BP est)      5.17(MP est)      ----(BP exp)      ----(MP exp)  PC(I)C(Br)Cl ,5.17,Pred,N
C2H4BrClIP,PCC(I)(Br)Cl,10,6,13338,301.286,(2-bromo-2-chloro-2-iodoethyl)phosphane,N,PCC(I)(Br)Cl,"InChI=1S/C2H4BrClIP/c3-2(4,5)1-6/h1,6H2",InChIKey=IRWRMTZAXVVWLI-UHFFFAOYSA-N,226.17,Pr,   226.17(BP est)     19.55(MP est)      ----(BP exp)      ----(MP exp)  PCC(I)(Br)Cl ,19.55,Pred,N
C2H4BrClIP,CPC(I)(Br)Cl,10,6,13339,301.286,(bromochloroiodomethyl)(methyl)phosphane,N,CPC(I)(Br)Cl,"InChI=1S/C2H4BrClIP/c1-6-2(3,4)5/h6H,1H3",InChIKey=MCTULRUFOHQPPD-UHFFFAOYSA-N,209.78,Pr,   209.78(BP est)      6.58(MP est)      ----(BP exp)      ----(MP exp)  CPC(I)(Br)Cl ,6.58,Pred,N
C2H4BrClIP,ICPC(Br)Cl,10,6,13340,301.286,(bromochloromethyl)(iodomethyl)phosphane,N,ICPC(Br)Cl,"InChI=1S/C2H4BrClIP/c3-2(4)6-1-5/h2,6H,1H2",InChIKey=PGYAEEXVPCVRLR-UHFFFAOYSA-N,227.68,Pr,   227.68(BP est)      3.10(MP est)      ----(BP exp)      ----(MP exp)  ICPC(Br)Cl ,3.1,Pred,N
C2H4BrClIP,ClCPC(Br)I,10,6,13341,301.286,(bromoiodomethyl)(chloromethyl)phosphane,N,ClCPC(Br)I,"InChI=1S/C2H4BrClIP/c3-2(5)6-1-4/h2,6H,1H2",InChIKey=RBJICRPYENMHIA-UHFFFAOYSA-N,237.71,Pr,   237.71(BP est)      6.03(MP est)      ----(BP exp)      ----(MP exp)  ClCPC(Br)I ,6.03,Pred,N
C2H4BrClIP,BrCPC(Cl)I,10,6,13342,301.286,(bromomethyl)(chloroiodomethyl)phosphane,N,BrCPC(Cl)I,"InChI=1S/C2H4BrClIP/c3-1-6-2(4)5/h2,6H,1H2",InChIKey=VSXUJXFSPZXDNR-UHFFFAOYSA-N,227.68,Pr,   227.68(BP est)      3.10(MP est)      ----(BP exp)      ----(MP exp)  BrCPC(Cl)I ,3.1,Pred,N
C3H3I2P,PC(C#C)(I)I,9,6,13430,323.84,"(1,1-diiodoprop-2-yn-1-yl)phosphane",N,PC(C#C)(I)I,"InChI=1S/C3H3I2P/c1-2-3(4,5)6/h1H,6H2",InChIKey=DHMQIBWJRFWNPA-UHFFFAOYSA-N,248.36,Pr,   248.36(BP est)     39.32(MP est)      ----(BP exp)      ----(MP exp)  PC(C#C)(I)I ,39.32,Pred,N
C3H3I2P,PC(I)C#CI,9,6,13431,323.84,"(1,3-diiodoprop-2-yn-1-yl)phosphane",N,PC(I)C#CI,"InChI=1S/C3H3I2P/c4-2-1-3(5)6/h3H,6H2",InChIKey=RGTXCFBLJIWWTP-UHFFFAOYSA-N,261.62,Pr,   261.62(BP est)     55.73(MP est)      ----(BP exp)      ----(MP exp)  PC(I)C#CI ,55.73,Pred,N
C3H3I2P,IC(PC#C)I,9,6,13432,323.84,(diiodomethyl)(ethynyl)phosphane,N,IC(PC#C)I,"InChI=1S/C3H3I2P/c1-2-6-3(4)5/h1,3,6H",InChIKey=RJSVTNWPSMNZTK-UHFFFAOYSA-N,240.12,Pr,   240.12(BP est)     20.02(MP est)      ----(BP exp)      ----(MP exp)  IC(PC#C)I ,20.02,Pred,N
C3H3I2P,ICPC#CI,9,6,13433,323.84,(iodoethynyl)(iodomethyl)phosphane,N,ICPC#CI,"InChI=1S/C3H3I2P/c4-1-2-6-3-5/h6H,3H2",InChIKey=VZJSYTBWDASWDG-UHFFFAOYSA-N,257.26,Pr,   257.26(BP est)     53.58(MP est)      ----(BP exp)      ----(MP exp)  ICPC#CI ,53.58,Pred,N
C3H3I2P,IC1(I)C=CP1,9,6,13434,323.84,"2,2-diiodo-1,2-dihydrophosphete",N,IC1(I)C=CP1,"InChI=1S/C3H3I2P/c4-3(5)1-2-6-3/h1-2,6H",InChIKey=BFTXUEKXJWFCKC-UHFFFAOYSA-N,240.58,Pr,   240.58(BP est)     25.47(MP est)      ----(BP exp)      ----(MP exp)  IC1(I)C=CP1 ,25.47,Pred,N
C3H3I2P,IC1C(I)=CP1,9,6,13435,323.84,"2,3-diiodo-1,2-dihydrophosphete",N,IC1C(I)=CP1,"InChI=1S/C3H3I2P/c4-2-1-6-3(2)5/h1,3,6H",InChIKey=LPKSMDYKNLBTHT-UHFFFAOYSA-N,248.44,Pr,   248.44(BP est)     22.08(MP est)      ----(BP exp)      ----(MP exp)  IC1C(I)=CP1 ,22.08,Pred,N
C3H3I2P,IC1C=C(I)P1,9,6,13436,323.84,"2,4-diiodo-1,2-dihydrophosphete",N,IC1C=C(I)P1,"InChI=1S/C3H3I2P/c4-2-1-3(5)6-2/h1-2,6H",InChIKey=FKHAVLUWNOIUSV-UHFFFAOYSA-N,248.44,Pr,   248.44(BP est)     22.08(MP est)      ----(BP exp)      ----(MP exp)  IC1C=C(I)P1 ,22.08,Pred,N
C3H3I2P,IC1=C(CP1)I,9,6,13437,323.84,"3,4-diiodo-1,2-dihydrophosphete",N,IC1=C(CP1)I,"InChI=1S/C3H3I2P/c4-2-1-6-3(2)5/h6H,1H2",InChIKey=SBVCIYWYEFWQAU-UHFFFAOYSA-N,252,Pr,   252.00(BP est)     31.50(MP est)      ----(BP exp)      ----(MP exp)  IC1=C(CP1)I ,31.5,Pred,N
C3H5I2P,PC(C=C)(I)I,11,6,13438,325.856,"(1,1-diiodoallyl)phosphane",N,PC(C=C)(I)I,"InChI=1S/C3H5I2P/c1-2-3(4,5)6/h2H,1,6H2",InChIKey=LPVCIYYUNMOYKH-UHFFFAOYSA-N,240.79,Pr,   240.79(BP est)     12.75(MP est)      ----(BP exp)      ----(MP exp)  PC(C=C)(I)I ,12.75,Pred,N
C3H5I2P,PC(I)C(I)=C,11,6,13439,325.856,"(1,2-diiodoallyl)phosphane",N,PC(I)C(I)=C,"InChI=1S/C3H5I2P/c1-2(4)3(5)6/h3H,1,6H2",InChIKey=CEDRHCOHSKSMHB-UHFFFAOYSA-N,243,Pr,   243.00(BP est)     -2.30(MP est)      ----(BP exp)      ----(MP exp)  PC(I)C(I)=C ,-2.3,Pred,N
C3H5I2P,CPC(I)=CI,11,6,13440,325.856,"(1,2-diiodovinyl)(methyl)phosphane",N,CPC(I)=CI,"InChI=1S/C3H5I2P/c1-6-3(5)2-4/h2,6H,1H3",InChIKey=BUSLYQYJNFCTQQ-UHFFFAOYSA-N,245.25,Pr,   245.25(BP est)     -3.98(MP est)      ----(BP exp)      ----(MP exp)  CPC(I)=CI ,-3.98,Pred,N
C3H5I2P,PC(I)C=CI,11,6,13441,325.856,"(1,3-diiodoallyl)phosphane",N,PC(I)C=CI,"InChI=1S/C3H5I2P/c4-2-1-3(5)6/h1-3H,6H2",InChIKey=IKHSDAJNKLZLAC-UHFFFAOYSA-N,254.51,Pr,   254.51(BP est)      6.38(MP est)      ----(BP exp)      ----(MP exp)  PC(I)C=CI ,6.38,Pred,N
C3H5I2P,CPC=C(I)I,11,6,13442,325.856,"(2,2-diiodovinyl)(methyl)phosphane",N,CPC=C(I)I,"InChI=1S/C3H5I2P/c1-6-2-3(4)5/h2,6H,1H3",InChIKey=GBDZKKPDKIZNJL-UHFFFAOYSA-N,245.25,Pr,   245.25(BP est)     -3.98(MP est)      ----(BP exp)      ----(MP exp)  CPC=C(I)I ,-3.98,Pred,N
C3H5I2P,PCC(I)=CI,11,6,13443,325.856,"(2,3-diiodoallyl)phosphane",N,PCC(I)=CI,"InChI=1S/C3H5I2P/c4-1-3(5)2-6/h1H,2,6H2",InChIKey=ZAGXNFVQJGSOEP-UHFFFAOYSA-N,260.16,Pr,   260.16(BP est)      8.55(MP est)      ----(BP exp)      ----(MP exp)  PCC(I)=CI ,8.55,Pred,N
C3H5I2P,PCC=C(I)I,11,6,13444,325.856,"(3,3-diiodoallyl)phosphane",N,PCC=C(I)I,"InChI=1S/C3H5I2P/c4-3(5)1-2-6/h1H,2,6H2",InChIKey=GAVRJOREOBVEHR-UHFFFAOYSA-N,260.16,Pr,   260.16(BP est)      8.55(MP est)      ----(BP exp)      ----(MP exp)  PCC=C(I)I ,8.55,Pred,N
C3H5I2P,IC(PC=C)I,11,6,13445,325.856,(diiodomethyl)(vinyl)phosphane,N,IC(PC=C)I,"InChI=1S/C3H5I2P/c1-2-6-3(4)5/h2-3,6H,1H2",InChIKey=GAJIJFNOCAAAPU-UHFFFAOYSA-N,232.38,Pr,   232.38(BP est)     -6.60(MP est)      ----(BP exp)      ----(MP exp)  IC(PC=C)I ,-6.6,Pred,N
C3H5I2P,ICPC(I)=C,11,6,13446,325.856,(iodomethyl)(1-iodovinyl)phosphane,N,ICPC(I)=C,"InChI=1S/C3H5I2P/c1-3(5)6-2-4/h6H,1-2H2",InChIKey=UXTSUEHNXMDUBC-UHFFFAOYSA-N,238.4,Pr,   238.40(BP est)     -4.33(MP est)      ----(BP exp)      ----(MP exp)  ICPC(I)=C ,-4.33,Pred,N
C3H5I2P,ICPC=CI,11,6,13447,325.856,(iodomethyl)(2-iodovinyl)phosphane,N,ICPC=CI,"InChI=1S/C3H5I2P/c4-1-2-6-3-5/h1-2,6H,3H2",InChIKey=KQJOJGXCEADAIG-UHFFFAOYSA-N,250.06,Pr,   250.06(BP est)      4.40(MP est)      ----(BP exp)      ----(MP exp)  ICPC=CI ,4.4,Pred,N
C3H5I2P,IC(P1CC1)I,11,6,13448,325.856,1-(diiodomethyl)phosphirane,N,IC(P1CC1)I,"InChI=1S/C3H5I2P/c4-3(5)6-1-2-6/h3H,1-2H2",InChIKey=BIJXPWITDLNTDY-UHFFFAOYSA-N,241.15,Pr,   241.15(BP est)      9.00(MP est)      ----(BP exp)      ----(MP exp)  IC(P1CC1)I ,9,Pred,N
C3H5I2P,CP1C(I)(I)C1,11,6,13449,325.856,"2,2-diiodo-1-methylphosphirane",N,CP1C(I)(I)C1,"InChI=1S/C3H5I2P/c1-6-2-3(6,4)5/h2H2,1H3",InChIKey=PZHSSTXGLPRIJK-UHFFFAOYSA-N,237.28,Pr,   237.28(BP est)     25.20(MP est)      ----(BP exp)      ----(MP exp)  CP1C(I)(I)C1 ,25.2,Pred,N