Formula,SMILES,Tot_atoms,Tot_nH_atoms,Dataset_no,Molecular_weight,IUPAC_chemname,Metalloid,EPISUITE,InChI_Code,InChI_Key,Boiling_Point,BP_basis,EPIsuite_output,MP,Basis,Life
C4H11P,CP(CC)C,16,5,2880,90.1058,ethyldimethylphosphane,N,CP(CC)C,"InChI=1S/C4H11P/c1-4-5(2)3/h4H2,1-3H3",InChIKey=LEMQFDHLRUSMPZ-UHFFFAOYSA-N,73.3,Ex,    64.32(BP est)   -100.40(MP est)      ----(BP exp)      ----(MP exp)  CP(CC)C ,-100.4,Pred,N
C4H11P,CC(CP)C,16,5,2881,90.1058,isobutylphosphane,N,CC(CP)C,"InChI=1S/C4H11P/c1-4(2)3-5/h4H,3,5H2,1-2H3",InChIKey=TXBIZRLVIDXDGB-UHFFFAOYSA-N,69.78,Pr,    69.78(BP est)    -97.43(MP est)      ----(BP exp)      ----(MP exp)  CC(CP)C ,-97.43,Pred,N
C4H11P,CPC(C)C,16,5,2882,90.1058,isopropyl(methyl)phosphane,N,CPC(C)C,"InChI=1S/C4H11P/c1-4(2)5-3/h4-5H,1-3H3",InChIKey=ZCCDHRRDZKZPPO-UHFFFAOYSA-N,47.85,Pr,    47.85(BP est)   -112.02(MP est)      ----(BP exp)      ----(MP exp)  CPC(C)C ,-112.02,Pred,N
C4H11P,CPCCC,16,5,2883,90.1058,methyl(propyl)phosphane,N,CPCCC,"InChI=1S/C4H11P/c1-3-4-5-2/h5H,3-4H2,1-2H3",InChIKey=LVVACMOOTCZPBO-UHFFFAOYSA-N,63.31,Pr,    63.31(BP est)   -100.01(MP est)      ----(BP exp)      ----(MP exp)  CPCCC ,-100.01,Pred,N
C4H11P,CC(P)CC,16,5,2884,90.1058,sec-butylphosphane,N,CC(P)CC,"InChI=1S/C4H11P/c1-3-4(2)5/h4H,3,5H2,1-2H3",InChIKey=IQTYZHQJHQBLPZ-UHFFFAOYSA-N,69.78,Pr,    69.78(BP est)    -97.43(MP est)      ----(BP exp)      ----(MP exp)  CC(P)CC ,-97.43,Pred,N
C4H11P,CC(C)(P)C,16,5,2885,90.1058,tert-butylphosphane,N,CC(C)(P)C,"InChI=1S/C4H11P/c1-4(2,3)5/h5H2,1-3H3",InChIKey=ZGNPLWZYVAFUNZ-UHFFFAOYSA-N,47,Ex,    59.75(BP est)    -91.65(MP est)      ----(BP exp)      ----(MP exp)  CC(C)(P)C ,-91.65,Pred,N
C2H6NOP,NC(=O)CP,11,5,2972,91.0498,2-phosphaneylacetamide,N,NC(=O)CP,"InChI=1S/C2H6NOP/c3-2(4)1-5/h1,5H2,(H2,3,4)",InChIKey=RAOPWWVFSUNYCH-UHFFFAOYSA-N,227.48,Pr,   227.48(BP est)     40.78(MP est)      ----(BP exp)      ----(MP exp)  NC(=O)CP ,40.78,Pred,N
C2H6NOP,O=PNCC,11,5,2973,91.0498,N-ethyloxophosphanyl amide,N,O=PNCC,"InChI=1S/C2H6NOP/c1-2-3-5-4/h2H2,1H3,(H,3,4)",InChIKey=VAZARAZIOXUSGV-UHFFFAOYSA-N,128.87,Pr,   128.87(BP est)    -40.12(MP est)      ----(BP exp)      ----(MP exp)  O=PNCC ,-40.12,Pred,N
C2H2FOP,O=PC(F)=C,7,5,3084,92.0092,(1-fluorovinyl)(oxo)phosphane,N,O=PC(F)=C,InChI=1S/C2H2FOP/c1-2(3)5-4/h1H2,InChIKey=IXFNKSUZSPLOLX-UHFFFAOYSA-N,78.27,Pr,    78.27(BP est)    -88.79(MP est)      ----(BP exp)      ----(MP exp)  O=PC(F)=C ,-88.79,Pred,N
C2H2FOP,O=PC=CF,7,5,3085,92.0092,(2-fluorovinyl)(oxo)phosphane,N,O=PC=CF,InChI=1S/C2H2FOP/c3-1-2-5-4/h1-2H,InChIKey=WBYIQKHVYKLOHD-UHFFFAOYSA-N,94.36,Pr,    94.36(BP est)    -78.77(MP est)      ----(BP exp)      ----(MP exp)  O=PC=CF ,-78.77,Pred,N
C2H5O2P,O1CCOP1,10,5,3088,92.0338,"1,3,2-dioxaphospholane",N,O1CCOP1,"InChI=1S/C2H5O2P/c1-2-4-5-3-1/h5H,1-2H2",InChIKey=FZRJLBJACDITKM-UHFFFAOYSA-N,90.46,Pr,    90.46(BP est)    -67.45(MP est)      ----(BP exp)      ----(MP exp)  O1CCOP1 ,-67.45,Pred,N
C2H5O2P,O=P1(O)CC1,10,5,3089,92.0338,1-hydroxyphosphirane 1-oxide,N,O=P1(O)CC1,"InChI=1S/C2H5O2P/c3-5(4)1-2-5/h1-2H2,(H,3,4)",InChIKey=YLOVTILJQFYNPC-UHFFFAOYSA-N,189.36,Pr,   189.36(BP est)    -21.90(MP est)      ----(BP exp)      ----(MP exp)  O=P1(O)CC1 ,-21.9,Pred,N
C2H5O2P,OC(=O)CP,10,5,3090,92.0338,2-phosphaneylacetic acid,N,OC(=O)CP,"InChI=1S/C2H5O2P/c3-2(4)1-5/h1,5H2,(H,3,4)",InChIKey=YKJZFNRWSLHRAG-UHFFFAOYSA-N,178.1,Pr,   178.10(BP est)     10.72(MP est)      ----(BP exp)      ----(MP exp)  OC(=O)CP ,10.72,Pred,N
C2H5O2P,O=P(C=C)O,10,5,3091,92.0338,vinylphosphinic acid,N,O=P(C=C)O,"InChI=1S/C2H5O2P/c1-2-5(3)4/h2,5H,1H2,(H,3,4)",InChIKey=MQIGTIFMSSGUBS-UHFFFAOYSA-N,182.16,Pr,   182.16(BP est)    -29.55(MP est)      ----(BP exp)      ----(MP exp)  O=P(C=C)O ,-29.55,Pred,N
C3H6FP,PC(F)C=C,11,5,3100,92.0532,(1-fluoroallyl)phosphane,N,PC(F)C=C,"InChI=1S/C3H6FP/c1-2-3(4)5/h2-3H,1,5H2",InChIKey=ZLJBVTWRMBKZCH-UHFFFAOYSA-N,44.8,Pr,    44.80(BP est)   -110.95(MP est)      ----(BP exp)      ----(MP exp)  PC(F)C=C ,-110.95,Pred,N
C3H6FP,CPC(F)=C,11,5,3101,92.0532,(1-fluorovinyl)(methyl)phosphane,N,CPC(F)=C,"InChI=1S/C3H6FP/c1-3(4)5-2/h5H,1H2,2H3",InChIKey=XZGBCLOOGAIIMI-UHFFFAOYSA-N,30.9,Pr,    30.90(BP est)   -122.67(MP est)      ----(BP exp)      ----(MP exp)  CPC(F)=C ,-122.67,Pred,N
C3H6FP,PCC(F)=C,11,5,3102,92.0532,(2-fluoroallyl)phosphane,N,PCC(F)=C,"InChI=1S/C3H6FP/c1-3(4)2-5/h1-2,5H2",InChIKey=PRTPHKWVAKBJTD-UHFFFAOYSA-N,53.33,Pr,    53.33(BP est)   -107.94(MP est)      ----(BP exp)      ----(MP exp)  PCC(F)=C ,-107.94,Pred,N
C3H6FP,CPC=CF,11,5,3103,92.0532,(2-fluorovinyl)(methyl)phosphane,N,CPC=CF,"InChI=1S/C3H6FP/c1-5-3-2-4/h2-3,5H,1H3",InChIKey=FASOHJOKHNLQGB-UHFFFAOYSA-N,48.08,Pr,    48.08(BP est)   -112.34(MP est)      ----(BP exp)      ----(MP exp)  CPC=CF ,-112.34,Pred,N
C3H6FP,PCC=CF,11,5,3104,92.0532,(3-fluoroallyl)phosphane,N,PCC=CF,"InChI=1S/C3H6FP/c4-2-1-3-5/h1-2H,3,5H2",InChIKey=VMAIFSVUKJCQMR-UHFFFAOYSA-N,70,Pr,    70.00(BP est)    -97.75(MP est)      ----(BP exp)      ----(MP exp)  PCC=CF ,-97.75,Pred,N
C3H6FP,FCPC=C,11,5,3105,92.0532,(fluoromethyl)(vinyl)phosphane,N,FCPC=C,"InChI=1S/C3H6FP/c1-2-5-3-4/h2,5H,1,3H2",InChIKey=ZVSBTYDQRMPKIH-UHFFFAOYSA-N,38.09,Pr,    38.09(BP est)   -113.59(MP est)      ----(BP exp)      ----(MP exp)  FCPC=C ,-113.59,Pred,N
C3H6FP,FCP1CC1,11,5,3106,92.0532,1-(fluoromethyl)phosphirane,N,FCP1CC1,InChI=1S/C3H6FP/c4-3-5-1-2-5/h1-3H2,InChIKey=BWUOFRQQLQEJNH-UHFFFAOYSA-N,50.67,Pr,    50.67(BP est)    -96.87(MP est)      ----(BP exp)      ----(MP exp)  FCP1CC1 ,-96.87,Pred,N
C3H6FP,CP1C(F)C1,11,5,3107,92.0532,2-fluoro-1-methylphosphirane,N,CP1C(F)C1,"InChI=1S/C3H6FP/c1-5-2-3(5)4/h3H,2H2,1H3",InChIKey=QWQJHWCAVPWKLA-UHFFFAOYSA-N,43.15,Pr,    43.15(BP est)   -101.19(MP est)      ----(BP exp)      ----(MP exp)  CP1C(F)C1 ,-101.19,Pred,N
C3H6FP,FC1CCP1,11,5,3108,92.0532,2-fluorophosphetane,N,FC1CCP1,"InChI=1S/C3H6FP/c4-3-1-2-5-3/h3,5H,1-2H2",InChIKey=ZSXDGJPBJGHYNZ-UHFFFAOYSA-N,44.49,Pr,    44.49(BP est)   -101.87(MP est)      ----(BP exp)      ----(MP exp)  FC1CCP1 ,-101.87,Pred,N
C3H6FP,FC1CPC1,11,5,3109,92.0532,3-fluorophosphetane,N,FC1CPC1,"InChI=1S/C3H6FP/c4-3-1-5-2-3/h3,5H,1-2H2",InChIKey=IUNYSZCPNFYADR-UHFFFAOYSA-N,44.49,Pr,    44.49(BP est)   -101.87(MP est)      ----(BP exp)      ----(MP exp)  FC1CPC1 ,-101.87,Pred,N
C3H9OP,OCP(C)C,14,5,3120,92.0778,(dimethylphosphaneyl)methanol,N,OCP(C)C,"InChI=1S/C3H9OP/c1-5(2)3-4/h4H,3H2,1-2H3",InChIKey=LRUAEICXNJUARS-UHFFFAOYSA-N,130.45,Pr,   130.45(BP est)    -56.32(MP est)      ----(BP exp)      ----(MP exp)  OCP(C)C ,-56.32,Pred,N
C3H9OP,CC(O)CP,14,5,3121,92.0778,1-phosphaneylpropan-2-ol,N,CC(O)CP,"InChI=1S/C3H9OP/c1-3(4)2-5/h3-4H,2,5H2,1H3",InChIKey=GKTWMJJBQAUOCH-UHFFFAOYSA-N,128,Pr,   128.00(BP est)    -55.66(MP est)      ----(BP exp)      ----(MP exp)  CC(O)CP ,-55.66,Pred,N
C3H9OP,CCPOC,14,5,3123,92.0778,ethyl(methoxy)phosphane,N,CCPOC,"InChI=1S/C3H9OP/c1-3-5-4-2/h5H,3H2,1-2H3",InChIKey=UJRXDLKKIKYMHS-UHFFFAOYSA-N,64.29,Pr,    64.29(BP est)    -94.24(MP est)      ----(BP exp)      ----(MP exp)  CCPOC ,-94.24,Pred,N
C3H9OP,O=P(C)CC,14,5,3124,92.0778,ethyl(methyl)phosphine oxide,N,O=P(C)CC,"InChI=1S/C3H9OP/c1-3-5(2)4/h5H,3H2,1-2H3",InChIKey=UFGGBJYMEZXRLU-UHFFFAOYSA-N,106.4,Pr,   106.40(BP est)    -75.56(MP est)      ----(BP exp)      ----(MP exp)  O=P(C)CC ,-75.56,Pred,N
C3H9OP,CP(C)OC,14,5,3126,92.0778,methoxydimethylphosphane,N,CP(C)OC,InChI=1S/C3H9OP/c1-4-5(2)3/h1-3H3,InChIKey=ODXKYOFRPVSRTK-UHFFFAOYSA-N,65.31,Pr,    65.31(BP est)    -94.63(MP est)      ----(BP exp)      ----(MP exp)  CP(C)OC ,-94.63,Pred,N
C3H9OP,O=P(C)(C)C,14,5,3127,92.0778,trimethylphosphine oxide,N,O=P(C)(C)C,"InChI=1S/C3H9OP/c1-5(2,3)4/h1-3H3",InChIKey=LRMLWYXJORUTBG-UHFFFAOYSA-N,104.2,Pr,   104.20(BP est)    -84.39(MP est)      ----(BP exp)      ----(MP exp)  O=P(C)(C)C ,-84.39,Pred,N
C2H4FOP,O=PC(F)C,9,5,3357,94.0252,(1-fluoroethyl)(oxo)phosphane,N,O=PC(F)C,"InChI=1S/C2H4FOP/c1-2(3)5-4/h2H,1H3",InChIKey=RVFHZROSXAABAO-UHFFFAOYSA-N,71.91,Pr,    71.91(BP est)    -90.29(MP est)      ----(BP exp)      ----(MP exp)  O=PC(F)C ,-90.29,Pred,N
C2H4FOP,O=PCCF,9,5,3359,94.0252,(2-fluoroethyl)(oxo)phosphane,N,O=PCCF,InChI=1S/C2H4FOP/c3-1-2-5-4/h1-2H2,InChIKey=SMTOBPBZYNIVRF-UHFFFAOYSA-N,86.85,Pr,    86.85(BP est)    -78.43(MP est)      ----(BP exp)      ----(MP exp)  O=PCCF ,-78.43,Pred,N
C2H4FOP,O=P1C(F)C1,9,5,3362,94.0252,2-fluorophosphirane 1-oxide,N,O=P1C(F)C1,"InChI=1S/C2H4FOP/c3-2-1-5(2)4/h2,5H,1H2",InChIKey=GTGWKHWVGMKMGY-UHFFFAOYSA-N,86.51,Pr,    86.51(BP est)    -75.98(MP est)      ----(BP exp)      ----(MP exp)  O=P1C(F)C1 ,-75.98,Pred,N
C2H7O2P,COPOC,12,5,3370,94.0498,dimethyl phosphonite,N,COPOC,"InChI=1S/C2H7O2P/c1-3-5-4-2/h5H,1-2H3",InChIKey=WTQARTIGFMEZNX-UHFFFAOYSA-N,65.27,Pr,    65.27(BP est)    -88.47(MP est)      ----(BP exp)      ----(MP exp)  COPOC ,-88.47,Pred,N
C2H7O2P,O=P(O)(C)C,12,5,3371,94.0498,dimethylphosphinic acid,N,O=P(O)(C)C,"InChI=1S/C2H7O2P/c1-5(2,3)4/h1-2H3,(H,3,4)",InChIKey=GOJNABIZVJCYFL-UHFFFAOYSA-N,377,Ex,   181.79(BP est)    -36.96(MP est)    377.00(BP exp)     92.00(MP exp)  O=P(O)(C)C ,92,Expt,N
C2H7O2P,O=P(CC)O,12,5,3372,94.0498,ethylphosphinic acid,N,O=P(CC)O,"InChI=1S/C2H7O2P/c1-2-5(3)4/h5H,2H2,1H3,(H,3,4)",InChIKey=ACBPPDYBJZVCTL-UHFFFAOYSA-N,183.7,Pr,   183.70(BP est)    -28.22(MP est)      ----(BP exp)      ----(MP exp)  O=P(CC)O ,-28.22,Pred,N
C2H7O2P,CP(O)OC,12,5,3374,94.0498,methyl hydrogen methylphosphonite,N,CP(O)OC,"InChI=1S/C2H7O2P/c1-4-5(2)3/h3H,1-2H3",InChIKey=MFBYDXODTSGNNM-UHFFFAOYSA-N,147.87,Pr,   147.87(BP est)    -45.75(MP est)      ----(BP exp)      ----(MP exp)  CP(O)OC ,-45.75,Pred,N
C2H7O2P,O=P(C)OC,12,5,3375,94.0498,methyl methylphosphinate,N,O=P(C)OC,"InChI=1S/C2H7O2P/c1-4-5(2)3/h5H,1-2H3",InChIKey=SZZFZADQWWRRTI-UHFFFAOYSA-N,107.33,Pr,   107.33(BP est)    -69.81(MP est)      ----(BP exp)      ----(MP exp)  O=P(C)OC ,-69.81,Pred,N
C2H7O2P,OCPCO,12,5,3376,94.0498,phosphanediyldimethanol,N,OCPCO,"InChI=1S/C2H7O2P/c3-1-5-2-4/h3-5H,1-2H2",InChIKey=OHADZAOMPKKMJR-UHFFFAOYSA-N,188.95,Pr,   188.95(BP est)    -13.78(MP est)      ----(BP exp)      ----(MP exp)  OCPCO ,-13.78,Pred,N
C3H8FP,CPC(F)C,13,5,3405,94.0692,(1-fluoroethyl)(methyl)phosphane,N,CPC(F)C,"InChI=1S/C3H8FP/c1-3(4)5-2/h3,5H,1-2H3",InChIKey=NAWIOHKNOMBQTI-UHFFFAOYSA-N,24.1,Pr,    24.10(BP est)   -124.29(MP est)      ----(BP exp)      ----(MP exp)  CPC(F)C ,-124.29,Pred,N
C3H8FP,PC(F)CC,13,5,3406,94.0692,(1-fluoropropyl)phosphane,N,PC(F)CC,"InChI=1S/C3H8FP/c1-2-3(4)5/h3H,2,5H2,1H3",InChIKey=IMCRMGCPAPRJGN-UHFFFAOYSA-N,46.74,Pr,    46.74(BP est)   -109.50(MP est)      ----(BP exp)      ----(MP exp)  PC(F)CC ,-109.5,Pred,N
C3H8FP,CPCCF,13,5,3407,94.0692,(2-fluoroethyl)(methyl)phosphane,N,CPCCF,"InChI=1S/C3H8FP/c1-5-3-2-4/h5H,2-3H2,1H3",InChIKey=YKVWJWMWAPXGHF-UHFFFAOYSA-N,40.05,Pr,    40.05(BP est)   -112.14(MP est)      ----(BP exp)      ----(MP exp)  CPCCF ,-112.14,Pred,N
C3H8FP,PCC(F)C,13,5,3408,94.0692,(2-fluoropropyl)phosphane,N,PCC(F)C,"InChI=1S/C3H8FP/c1-3(4)2-5/h3H,2,5H2,1H3",InChIKey=JXRLYCUCNFCVKY-UHFFFAOYSA-N,46.74,Pr,    46.74(BP est)   -109.50(MP est)      ----(BP exp)      ----(MP exp)  PCC(F)C ,-109.5,Pred,N
C3H8FP,PCCCF,13,5,3409,94.0692,(3-fluoropropyl)phosphane,N,PCCCF,"InChI=1S/C3H8FP/c4-2-1-3-5/h1-3,5H2",InChIKey=CYHBAFRLRGZXOR-UHFFFAOYSA-N,62.22,Pr,    62.22(BP est)    -97.48(MP est)      ----(BP exp)      ----(MP exp)  PCCCF ,-97.48,Pred,N
C3H8FP,CP(C)CF,13,5,3410,94.0692,(fluoromethyl)dimethylphosphane,N,CP(C)CF,"InChI=1S/C3H8FP/c1-5(2)3-4/h3H2,1-2H3",InChIKey=ULPOZZMHTKVTNO-UHFFFAOYSA-N,41.1,Pr,    41.10(BP est)   -112.52(MP est)      ----(BP exp)      ----(MP exp)  CP(C)CF ,-112.52,Pred,N
C3H8FP,FCPCC,13,5,3411,94.0692,ethyl(fluoromethyl)phosphane,N,FCPCC,"InChI=1S/C3H8FP/c1-2-5-3-4/h5H,2-3H2,1H3",InChIKey=PDWDQWBHTRHDEX-UHFFFAOYSA-N,40.05,Pr,    40.05(BP est)   -112.14(MP est)      ----(BP exp)      ----(MP exp)  FCPCC ,-112.14,Pred,N
CH6NO2P,O=P(CN)O,11,5,3491,95.0378,(aminomethyl)phosphinic acid,N,O=P(CN)O,"InChI=1S/CH6NO2P/c2-1-5(3)4/h5H,1-2H2,(H,3,4)",InChIKey=OHWRASKXEUIFFB-UHFFFAOYSA-N,216.55,Pr,   216.55(BP est)     17.37(MP est)      ----(BP exp)      ----(MP exp)  O=P(CN)O ,17.37,Pred,N
CH6NO2P,O=P(O)(N)C,11,5,3493,95.0378,P-methylphosphonamidic acid,N,O=P(O)(N)C,"InChI=1S/CH6NO2P/c1-5(2,3)4/h1H3,(H3,2,3,4)",InChIKey=XQJNSUNTLIFUSQ-UHFFFAOYSA-N,214.78,Pr,   214.78(BP est)      8.66(MP est)      ----(BP exp)      ----(MP exp)  O=P(O)(N)C ,8.66,Pred,N
H6N3OP,NP(=O)(N)N,11,5,3494,95.0418,phosphoric triamide,N,NP(=O)(N)N,"InChI=1S/H6N3OP/c1-5(2,3)4/h(H6,1,2,3,4)",InChIKey=DMSZORWOGDLWGN-UHFFFAOYSA-N,198.0448284,Pr,   480.00(BP est)     90.27(MP est)      ----(BP exp)      ----(MP exp)  NP(=O)(N)N ,90.27,Pred,N
C2H3F2P,PC(F)=CF,8,5,3536,96.0166,"(1,2-difluorovinyl)phosphane",N,PC(F)=CF,"InChI=1S/C2H3F2P/c3-1-2(4)5/h1H,5H2",InChIKey=MRTLBQOPNISZGS-UHFFFAOYSA-N,39.85,Pr,    39.85(BP est)   -118.87(MP est)      ----(BP exp)      ----(MP exp)  PC(F)=CF ,-118.87,Pred,N
C2H3F2P,PC=C(F)F,8,5,3537,96.0166,"(2,2-difluorovinyl)phosphane",N,PC=C(F)F,"InChI=1S/C2H3F2P/c3-2(4)1-5/h1H,5H2",InChIKey=NKFDWLDISMIIRF-UHFFFAOYSA-N,39.85,Pr,    39.85(BP est)   -118.87(MP est)      ----(BP exp)      ----(MP exp)  PC=C(F)F ,-118.87,Pred,N
C2H3F2P,FC1(F)CP1,8,5,3538,96.0166,"2,2-difluorophosphirane",N,FC1(F)CP1,"InChI=1S/C2H3F2P/c3-2(4)1-5-2/h5H,1H2",InChIKey=IJRYTSVQPVVSQC-UHFFFAOYSA-N,3.84,Pr,     3.84(BP est)   -105.37(MP est)      ----(BP exp)      ----(MP exp)  FC1(F)CP1 ,-105.37,Pred,N
C2H3F2P,FC1C(F)P1,8,5,3539,96.0166,"2,3-difluorophosphirane",N,FC1C(F)P1,"InChI=1S/C2H3F2P/c3-1-2(4)5-1/h1-2,5H",InChIKey=QPXNQIMHYJEQHA-UHFFFAOYSA-N,10.34,Pr,    10.34(BP est)   -117.54(MP est)      ----(BP exp)      ----(MP exp)  FC1C(F)P1 ,-117.54,Pred,N
CH5O3P,O=P(O)OC,10,5,3540,96.0218,methyl hydrogen phosphonate,N,O=P(O)OC,"InChI=1S/CH5O3P/c1-4-5(2)3/h5H,1H3,(H,2,3)",InChIKey=QCMYYKRYFNMIEC-UHFFFAOYSA-N,184.5,Pr,   184.50(BP est)    -22.51(MP est)      ----(BP exp)      ----(MP exp)  O=P(O)OC ,-22.51,Pred,N
CH5O3P,O=P(O)(C)O,10,5,3541,96.0218,methylphosphonic acid,N,O=P(O)(C)O,"InChI=1S/CH5O3P/c1-5(2,3)4/h1H3,(H2,2,3,4)",InChIKey=YACKEPLHDIMKIO-UHFFFAOYSA-N,248.43,Pr,   248.43(BP est)      7.27(MP est)      ----(BP exp)    108.50(MP exp)  O=P(O)(C)O ,108.5,Expt,Y
H5N2O2P,NP(=O)(N)O,10,5,3542,96.0258,phosphorodiamidic acid,N,NP(=O)(N)O,"InChI=1S/H5N2O2P/c1-5(2,3)4/h(H5,1,2,3,4)",InChIKey=ANCLJVISBRWUTR-UHFFFAOYSA-N,191.04704,Pr,   480.00(BP est)     90.27(MP est)      ----(BP exp)      ----(MP exp)  NP(=O)(N)O ,90.27,Pred,N
C2H6FOP,FCPOC,11,5,3549,96.0412,(fluoromethyl)(methoxy)phosphane,N,FCPOC,"InChI=1S/C2H6FOP/c1-4-5-2-3/h5H,2H2,1H3",InChIKey=DAKKYUMHXNDILK-UHFFFAOYSA-N,41.07,Pr,    41.07(BP est)   -106.36(MP est)      ----(BP exp)      ----(MP exp)  FCPOC ,-106.36,Pred,N
C2H6FOP,O=P(C)CF,11,5,3550,96.0412,(fluoromethyl)(methyl)phosphine oxide,N,O=P(C)CF,"InChI=1S/C2H6FOP/c1-5(4)2-3/h5H,2H2,1H3",InChIKey=CJKRCOFYJSEXCL-UHFFFAOYSA-N,84.58,Pr,    84.58(BP est)    -87.27(MP est)      ----(BP exp)      ----(MP exp)  O=P(C)CF ,-87.27,Pred,N
H4NO3P,NP(=O)(O)O,9,5,3623,97.0098,phosphoramidic acid,N,NP(=O)(O)O,"InChI=1S/H4NO3P/c1-5(2,3)4/h(H4,1,2,3,4)",InChIKey=PTMHPRAIXMAOOB-UHFFFAOYSA-N,203.7773355,Pr,   480.00(BP est)     90.27(MP est)      ----(BP exp)      ----(MP exp)  NP(=O)(O)O ,90.27,Pred,N
CHF2OP,O=PC(F)F,6,5,3652,97.9886,(difluoromethyl)(oxo)phosphane,N,O=PC(F)F,InChI=1S/CHF2OP/c2-1(3)5-4/h1H,InChIKey=UEFLOYGMHPJVQH-UHFFFAOYSA-N,48.93,Pr,    48.93(BP est)   -102.34(MP est)      ----(BP exp)      ----(MP exp)  O=PC(F)F ,-102.34,Pred,N
H3O4P,O=P(O)(O)O,8,5,3653,97.9938,phosphoric acid,N,O=P(O)(O)O,"InChI=1S/H3O4P/c1-5(2,3)4/h(H3,1,2,3,4)",InChIKey=NBIIXXVUZAFLBC-UHFFFAOYSA-N,206.0936914,Pr,   480.00(BP est)     90.27(MP est)      ----(BP exp)     42.35(MP exp)  O=P(O)(O)O ,42.35,Expt,Y
CH4FO2P,O=P(CF)O,9,5,3654,98.0132,(fluoromethyl)phosphinic acid,N,O=P(CF)O,"InChI=1S/CH4FO2P/c2-1-5(3)4/h5H,1H2,(H,3,4)",InChIKey=VRQISVWOSIUOJK-UHFFFAOYSA-N,164.71,Pr,   164.71(BP est)    -39.10(MP est)      ----(BP exp)      ----(MP exp)  O=P(CF)O ,-39.1,Pred,N
C2H5F2P,PC(C)(F)F,10,5,3658,98.0326,"(1,1-difluoroethyl)phosphane",N,PC(C)(F)F,"InChI=1S/C2H5F2P/c1-2(3,4)5/h5H2,1H3",InChIKey=JDGYHTXXXJPYOZ-UHFFFAOYSA-N,12.27,Pr,    12.27(BP est)   -116.19(MP est)      ----(BP exp)      ----(MP exp)  PC(C)(F)F ,-116.19,Pred,N
C2H5F2P,PC(F)CF,10,5,3659,98.0326,"(1,2-difluoroethyl)phosphane",N,PC(F)CF,"InChI=1S/C2H5F2P/c3-1-2(4)5/h2H,1,5H2",InChIKey=QKWZZVQDIGDKGH-UHFFFAOYSA-N,22.96,Pr,    22.96(BP est)   -121.78(MP est)      ----(BP exp)      ----(MP exp)  PC(F)CF ,-121.78,Pred,N
C2H5F2P,PCC(F)F,10,5,3660,98.0326,"(2,2-difluoroethyl)phosphane",N,PCC(F)F,"InChI=1S/C2H5F2P/c3-2(4)1-5/h2H,1,5H2",InChIKey=FCCXXXUMHNFXQX-UHFFFAOYSA-N,22.96,Pr,    22.96(BP est)   -121.78(MP est)      ----(BP exp)      ----(MP exp)  PCC(F)F ,-121.78,Pred,N
C2H5F2P,CPC(F)F,10,5,3661,98.0326,(difluoromethyl)(methyl)phosphane,N,CPC(F)F,"InChI=1S/C2H5F2P/c1-5-2(3)4/h2,5H,1H3",InChIKey=NASQVKWFTFIBKH-UHFFFAOYSA-N,-0.38,Pr,    -0.38(BP est)   -136.78(MP est)      ----(BP exp)      ----(MP exp)  CPC(F)F ,-136.78,Pred,N
C2H5F2P,FCPCF,10,5,3662,98.0326,bis(fluoromethyl)phosphane,N,FCPCF,"InChI=1S/C2H5F2P/c3-1-5-2-4/h5H,1-2H2",InChIKey=KQNNRQHCIBNRDB-UHFFFAOYSA-N,16.06,Pr,    16.06(BP est)   -124.48(MP est)      ----(BP exp)      ----(MP exp)  FCPCF ,-124.48,Pred,N
CH2F3P,PC(F)(F)F,7,5,3998,101.996,(trifluoromethyl)phosphane,N,PC(F)(F)F,"InChI=1S/CH2F3P/c2-1(3,4)5/h5H2",InChIKey=QQAHNNMLPUNNNJ-UHFFFAOYSA-N,-26.5,Ex,   -12.57(BP est)   -128.78(MP est)      ----(BP exp)      ----(MP exp)  PC(F)(F)F ,-128.78,Pred,N
C2ClOP,O=PC#CCl,5,5,4787,106.445,(chloroethynyl)(oxo)phosphane,N,O=PC#CCl,InChI=1S/C2ClOP/c3-1-2-5-4,InChIKey=YEEAAUALBLLIFR-UHFFFAOYSA-N,136.93,Pr,   136.93(BP est)      3.91(MP est)      ----(BP exp)      ----(MP exp)  O=PC#CCl ,3.91,Pred,N
C3H4ClP,ClC(P)C#C,9,5,4788,106.489,(1-chloroprop-2-yn-1-yl)phosphane,N,ClC(P)C#C,"InChI=1S/C3H4ClP/c1-2-3(4)5/h1,3H,5H2",InChIKey=KJBGAQIRRNYEHM-UHFFFAOYSA-N,106.08,Pr,   106.08(BP est)    -54.03(MP est)      ----(BP exp)      ----(MP exp)  ClC(P)C#C ,-54.03,Pred,N
C3H4ClP,PCC#CCl,9,5,4789,106.489,(3-chloroprop-2-yn-1-yl)phosphane,N,PCC#CCl,"InChI=1S/C3H4ClP/c4-2-1-3-5/h3,5H2",InChIKey=OTMONWATGVIWLH-UHFFFAOYSA-N,114.19,Pr,   114.19(BP est)    -14.59(MP est)      ----(BP exp)      ----(MP exp)  PCC#CCl ,-14.59,Pred,N
C3H4ClP,CPC#CCl,9,5,4790,106.489,(chloroethynyl)(methyl)phosphane,N,CPC#CCl,"InChI=1S/C3H4ClP/c1-5-3-2-4/h5H,1H3",InChIKey=ZDZFQSBYJQLCCU-UHFFFAOYSA-N,93.68,Pr,    93.68(BP est)    -28.77(MP est)      ----(BP exp)      ----(MP exp)  CPC#CCl ,-28.77,Pred,N
C3H4ClP,ClCPC#C,9,5,4791,106.489,(chloromethyl)(ethynyl)phosphane,N,ClCPC#C,"InChI=1S/C3H4ClP/c1-2-5-3-4/h1,5H,3H2",InChIKey=KXNBHEMUKGXNJB-UHFFFAOYSA-N,112.93,Pr,   112.93(BP est)    -52.71(MP est)      ----(BP exp)      ----(MP exp)  ClCPC#C ,-52.71,Pred,N
C3H4ClP,ClC1C=CP1,9,5,4792,106.489,"2-chloro-1,2-dihydrophosphete",N,ClC1C=CP1,"InChI=1S/C3H4ClP/c4-3-1-2-5-3/h1-3,5H",InChIKey=CFETWQXUSJVCMJ-UHFFFAOYSA-N,98.76,Pr,    98.76(BP est)    -70.98(MP est)      ----(BP exp)      ----(MP exp)  ClC1C=CP1 ,-70.98,Pred,N
C3H4ClP,ClC1=CPC1,9,5,4793,106.489,"3-chloro-1,2-dihydrophosphete",N,ClC1=CPC1,"InChI=1S/C3H4ClP/c4-3-1-5-2-3/h1,5H,2H2",InChIKey=XJTMKTVMDCJCHN-UHFFFAOYSA-N,88.35,Pr,    88.35(BP est)    -65.64(MP est)      ----(BP exp)      ----(MP exp)  ClC1=CPC1 ,-65.64,Pred,N
C3H4ClP,ClC1=CCP1,9,5,4794,106.489,"4-chloro-1,2-dihydrophosphete",N,ClC1=CCP1,"InChI=1S/C3H4ClP/c4-3-1-2-5-3/h1,5H,2H2",InChIKey=FWASQYQJQNQNCB-UHFFFAOYSA-N,88.35,Pr,    88.35(BP est)    -65.64(MP est)      ----(BP exp)      ----(MP exp)  ClC1=CCP1 ,-65.64,Pred,N
C3H10P2,PCCCP,15,5,5041,108.061,"1,3-bis(phosphaneyl)propane",N,PCCCP,InChI=1S/C3H10P2/c4-2-1-3-5/h1-5H2,InChIKey=PKYIOXGHYZJCRH-UHFFFAOYSA-N,121.41,Pr,   121.41(BP est)    -64.81(MP est)      ----(BP exp)      ----(MP exp)  PCCCP ,-64.81,Pred,N