Formula,SMILES,Tot_atoms,Tot_nH_atoms,Dataset_no,Molecular_weight,IUPAC_chemname,Metalloid,EPISUITE,InChI_Code,InChI_Key,Boiling_Point,BP_basis,EPIsuite_output,MP,Basis,Life
C3H7BrFP,CPC(Br)CF,13,6,9161,172.965,(1-bromo-2-fluoroethyl)(methyl)phosphane,N,CPC(Br)CF,"InChI=1S/C3H7BrFP/c1-6-3(4)2-5/h3,6H,2H2,1H3",InChIKey=HXVHNYKRXVDQIR-UHFFFAOYSA-N,106.01,Pr,   106.01(BP est)    -70.48(MP est)      ----(BP exp)      ----(MP exp)  CPC(Br)CF ,-70.48,Pred,N
C3H7BrFP,PC(Br)C(F)C,13,6,9162,172.965,(1-bromo-2-fluoropropyl)phosphane,N,PC(Br)C(F)C,"InChI=1S/C3H7BrFP/c1-2(5)3(4)6/h2-3H,6H2,1H3",InChIKey=OTVJIEBRXZTKQN-UHFFFAOYSA-N,112.08,Pr,   112.08(BP est)    -68.02(MP est)      ----(BP exp)      ----(MP exp)  PC(Br)C(F)C ,-68.02,Pred,N
C3H7BrFP,PC(Br)CCF,13,6,9163,172.965,(1-bromo-3-fluoropropyl)phosphane,N,PC(Br)CCF,"InChI=1S/C3H7BrFP/c4-3(6)1-2-5/h3H,1-2,6H2",InChIKey=MKRVDLUNBUDFFS-UHFFFAOYSA-N,126.12,Pr,   126.12(BP est)    -56.42(MP est)      ----(BP exp)      ----(MP exp)  PC(Br)CCF ,-56.42,Pred,N
C3H7BrFP,FCPC(Br)C,13,6,9164,172.965,(1-bromoethyl)(fluoromethyl)phosphane,N,FCPC(Br)C,"InChI=1S/C3H7BrFP/c1-3(4)6-2-5/h3,6H,2H2,1H3",InChIKey=FXNGYLHOAMLXDK-UHFFFAOYSA-N,106.01,Pr,   106.01(BP est)    -70.48(MP est)      ----(BP exp)      ----(MP exp)  FCPC(Br)C ,-70.48,Pred,N
C3H7BrFP,CPC(F)CBr,13,6,9165,172.965,(2-bromo-1-fluoroethyl)(methyl)phosphane,N,CPC(F)CBr,"InChI=1S/C3H7BrFP/c1-6-3(5)2-4/h3,6H,2H2,1H3",InChIKey=LMQXMASZEKQQJD-UHFFFAOYSA-N,106.01,Pr,   106.01(BP est)    -70.48(MP est)      ----(BP exp)      ----(MP exp)  CPC(F)CBr ,-70.48,Pred,N
C3H7BrFP,PC(F)C(Br)C,13,6,9166,172.965,(2-bromo-1-fluoropropyl)phosphane,N,PC(F)C(Br)C,"InChI=1S/C3H7BrFP/c1-2(4)3(5)6/h2-3H,6H2,1H3",InChIKey=IWKFIHMYIUDPAK-UHFFFAOYSA-N,112.08,Pr,   112.08(BP est)    -68.02(MP est)      ----(BP exp)      ----(MP exp)  PC(F)C(Br)C ,-68.02,Pred,N
C3H7BrFP,CPCC(Br)F,13,6,9167,172.965,(2-bromo-2-fluoroethyl)(methyl)phosphane,N,CPCC(Br)F,"InChI=1S/C3H7BrFP/c1-6-2-3(4)5/h3,6H,2H2,1H3",InChIKey=CUHAWSAPMUTQFX-UHFFFAOYSA-N,106.01,Pr,   106.01(BP est)    -70.48(MP est)      ----(BP exp)      ----(MP exp)  CPCC(Br)F ,-70.48,Pred,N
C3H7BrFP,PCC(C)(Br)F,13,6,9168,172.965,(2-bromo-2-fluoropropyl)phosphane,N,PCC(C)(Br)F,"InChI=1S/C3H7BrFP/c1-3(4,5)2-6/h2,6H2,1H3",InChIKey=FBDCNTRVYHKYRX-UHFFFAOYSA-N,116.93,Pr,   116.93(BP est)    -50.40(MP est)      ----(BP exp)      ----(MP exp)  PCC(C)(Br)F ,-50.4,Pred,N
C3H7BrFP,PCC(Br)CF,13,6,9169,172.965,(2-bromo-3-fluoropropyl)phosphane,N,PCC(Br)CF,"InChI=1S/C3H7BrFP/c4-3(1-5)2-6/h3H,1-2,6H2",InChIKey=PJVQTIDDMCOTAT-UHFFFAOYSA-N,126.12,Pr,   126.12(BP est)    -56.42(MP est)      ----(BP exp)      ----(MP exp)  PCC(Br)CF ,-56.42,Pred,N
C3H7BrFP,FCPCCBr,13,6,9170,172.965,(2-bromoethyl)(fluoromethyl)phosphane,N,FCPCCBr,"InChI=1S/C3H7BrFP/c4-1-2-6-3-5/h6H,1-3H2",InChIKey=MHNCDLVHKYRDGW-UHFFFAOYSA-N,120.19,Pr,   120.19(BP est)    -58.84(MP est)      ----(BP exp)      ----(MP exp)  FCPCCBr ,-58.84,Pred,N
C3H7BrFP,PC(F)CCBr,13,6,9171,172.965,(3-bromo-1-fluoropropyl)phosphane,N,PC(F)CCBr,"InChI=1S/C3H7BrFP/c4-2-1-3(5)6/h3H,1-2,6H2",InChIKey=JRLPJCVRKSWCOV-UHFFFAOYSA-N,126.12,Pr,   126.12(BP est)    -56.42(MP est)      ----(BP exp)      ----(MP exp)  PC(F)CCBr ,-56.42,Pred,N
C3H7BrFP,PCC(F)CBr,13,6,9172,172.965,(3-bromo-2-fluoropropyl)phosphane,N,PCC(F)CBr,"InChI=1S/C3H7BrFP/c4-1-3(5)2-6/h3H,1-2,6H2",InChIKey=RRSMLDARTRWNAI-UHFFFAOYSA-N,126.12,Pr,   126.12(BP est)    -56.42(MP est)      ----(BP exp)      ----(MP exp)  PCC(F)CBr ,-56.42,Pred,N
C3H7BrFP,PCCC(Br)F,13,6,9173,172.965,(3-bromo-3-fluoropropyl)phosphane,N,PCCC(Br)F,"InChI=1S/C3H7BrFP/c4-3(5)1-2-6/h3H,1-2,6H2",InChIKey=UIYBCZUMCMDCPI-UHFFFAOYSA-N,126.12,Pr,   126.12(BP est)    -56.42(MP est)      ----(BP exp)      ----(MP exp)  PCCC(Br)F ,-56.42,Pred,N
C3H7BrFP,BrC(PCC)F,13,6,9174,172.965,(bromofluoromethyl)(ethyl)phosphane,N,BrC(PCC)F,"InChI=1S/C3H7BrFP/c1-2-6-3(4)5/h3,6H,2H2,1H3",InChIKey=ZLLXJIQFYWGSFA-UHFFFAOYSA-N,106.01,Pr,   106.01(BP est)    -70.48(MP est)      ----(BP exp)      ----(MP exp)  BrC(PCC)F ,-70.48,Pred,N
C3H7BrFP,CP(C)C(Br)F,13,6,9175,172.965,(bromofluoromethyl)dimethylphosphane,N,CP(C)C(Br)F,"InChI=1S/C3H7BrFP/c1-6(2)3(4)5/h3H,1-2H3",InChIKey=ZNNIEEZNVOQMSJ-UHFFFAOYSA-N,106.96,Pr,   106.96(BP est)    -70.89(MP est)      ----(BP exp)      ----(MP exp)  CP(C)C(Br)F ,-70.89,Pred,N
C3H7BrFP,BrCPC(F)C,13,6,9176,172.965,(bromomethyl)(1-fluoroethyl)phosphane,N,BrCPC(F)C,"InChI=1S/C3H7BrFP/c1-3(5)6-2-4/h3,6H,2H2,1H3",InChIKey=AXKQSQATXRNHAU-UHFFFAOYSA-N,106.01,Pr,   106.01(BP est)    -70.48(MP est)      ----(BP exp)      ----(MP exp)  BrCPC(F)C ,-70.48,Pred,N
C3H7BrFP,BrCPCCF,13,6,9177,172.965,(bromomethyl)(2-fluoroethyl)phosphane,N,BrCPCCF,"InChI=1S/C3H7BrFP/c4-3-6-2-1-5/h6H,1-3H2",InChIKey=AOUINELQNYJGJX-UHFFFAOYSA-N,120.19,Pr,   120.19(BP est)    -58.84(MP est)      ----(BP exp)      ----(MP exp)  BrCPCCF ,-58.84,Pred,N
C3H7BrFP,CP(CBr)CF,13,6,9178,172.965,(bromomethyl)(fluoromethyl)(methyl)phosphane,N,CP(CBr)CF,"InChI=1S/C3H7BrFP/c1-6(2-4)3-5/h2-3H2,1H3",InChIKey=JFGMBOLXSZLLLJ-UHFFFAOYSA-N,121.12,Pr,   121.12(BP est)    -59.25(MP est)      ----(BP exp)      ----(MP exp)  CP(CBr)CF ,-59.25,Pred,N
C2H2BrF2P,PC(Br)=C(F)F,8,6,9304,174.913,"(1-bromo-2,2-difluorovinyl)phosphane",N,PC(Br)=C(F)F,InChI=1S/C2H2BrF2P/c3-1(6)2(4)5/h6H2,InChIKey=AJFYXDIOVHZEFZ-UHFFFAOYSA-N,113.63,Pr,   113.63(BP est)    -74.41(MP est)      ----(BP exp)      ----(MP exp)  PC(Br)=C(F)F ,-74.41,Pred,N
C2H2BrF2P,PC(F)=C(Br)F,8,6,9305,174.913,"(2-bromo-1,2-difluorovinyl)phosphane",N,PC(F)=C(Br)F,InChI=1S/C2H2BrF2P/c3-1(4)2(5)6/h6H2,InChIKey=BBCKHFJBZZMUGZ-UHFFFAOYSA-N,113.63,Pr,   113.63(BP est)    -74.41(MP est)      ----(BP exp)      ----(MP exp)  PC(F)=C(Br)F ,-74.41,Pred,N
C2H2BrF2P,FC1C(F)(Br)P1,8,6,9306,174.913,"2-bromo-2,3-difluorophosphirane",N,FC1C(F)(Br)P1,"InChI=1S/C2H2BrF2P/c3-2(5)1(4)6-2/h1,6H",InChIKey=CSBZJVKQHGWMHG-UHFFFAOYSA-N,80.81,Pr,    80.81(BP est)    -55.12(MP est)      ----(BP exp)      ----(MP exp)  FC1C(F)(Br)P1 ,-55.12,Pred,N
C2H2BrF2P,BrC1C(F)(F)P1,8,6,9307,174.913,"3-bromo-2,2-difluorophosphirane",N,BrC1C(F)(F)P1,"InChI=1S/C2H2BrF2P/c3-1-2(4,5)6-1/h1,6H",InChIKey=OKXVKEYWENKHHQ-UHFFFAOYSA-N,80.81,Pr,    80.81(BP est)    -55.12(MP est)      ----(BP exp)      ----(MP exp)  BrC1C(F)(F)P1 ,-55.12,Pred,N
C2H5BrFOP,BrC(POC)F,11,6,9313,174.937,(bromofluoromethyl)(methoxy)phosphane,N,BrC(POC)F,"InChI=1S/C2H5BrFOP/c1-5-6-2(3)4/h2,6H,1H3",InChIKey=OVFDTBABSZZBRM-UHFFFAOYSA-N,106.93,Pr,   106.93(BP est)    -64.73(MP est)      ----(BP exp)      ----(MP exp)  BrC(POC)F ,-64.73,Pred,N
C2H5BrFOP,O=P(C)C(Br)F,11,6,9314,174.937,(bromofluoromethyl)(methyl)phosphine oxide,N,O=P(C)C(Br)F,"InChI=1S/C2H5BrFOP/c1-6(5)2(3)4/h2,6H,1H3",InChIKey=MIRNNJOLMSGWFV-UHFFFAOYSA-N,146.35,Pr,   146.35(BP est)    -46.84(MP est)      ----(BP exp)      ----(MP exp)  O=P(C)C(Br)F ,-46.84,Pred,N
C2H5BrFOP,O=P(CBr)CF,11,6,9316,174.937,(bromomethyl)(fluoromethyl)phosphine oxide,N,O=P(CBr)CF,"InChI=1S/C2H5BrFOP/c3-1-6(5)2-4/h6H,1-2H2",InChIKey=YODCVISJJRCYIF-UHFFFAOYSA-N,159.58,Pr,   159.58(BP est)    -35.48(MP est)      ----(BP exp)      ----(MP exp)  O=P(CBr)CF ,-35.48,Pred,N
CBrF2OP,O=PC(F)(Br)F,6,6,9378,176.885,(bromodifluoromethyl)(oxo)phosphane,N,O=PC(F)(Br)F,"InChI=1S/CBrF2OP/c2-1(3,4)6-5",InChIKey=KKOYQPDIHOOROU-UHFFFAOYSA-N,118.9,Pr,   118.90(BP est)    -43.30(MP est)      ----(BP exp)      ----(MP exp)  O=PC(F)(Br)F ,-43.3,Pred,N
CH3BrFO2P,O=P(C(Br)F)O,9,6,9379,176.909,(bromofluoromethyl)phosphinic acid,N,O=P(C(Br)F)O,"InChI=1S/CH3BrFO2P/c2-1(3)6(4)5/h1,6H,(H,4,5)",InChIKey=KQFAGJHIERBERD-UHFFFAOYSA-N,218.19,Pr,   218.19(BP est)     -1.09(MP est)      ----(BP exp)      ----(MP exp)  O=P(C(Br)F)O ,-1.09,Pred,N
C2H4BrF2P,PC(CF)(Br)F,10,6,9381,176.929,"(1-bromo-1,2-difluoroethyl)phosphane",N,PC(CF)(Br)F,"InChI=1S/C2H4BrF2P/c3-2(5,6)1-4/h1,6H2",InChIKey=NYQXTWSQJNYISI-UHFFFAOYSA-N,95.47,Pr,    95.47(BP est)    -62.00(MP est)      ----(BP exp)      ----(MP exp)  PC(CF)(Br)F ,-62,Pred,N
C2H4BrF2P,PC(Br)C(F)F,10,6,9382,176.929,"(1-bromo-2,2-difluoroethyl)phosphane",N,PC(Br)C(F)F,"InChI=1S/C2H4BrF2P/c3-1(6)2(4)5/h1-2H,6H2",InChIKey=FLXVJAWQEQTPEZ-UHFFFAOYSA-N,90.45,Pr,    90.45(BP est)    -79.68(MP est)      ----(BP exp)      ----(MP exp)  PC(Br)C(F)F ,-79.68,Pred,N
C2H4BrF2P,PC(CBr)(F)F,10,6,9383,176.929,"(2-bromo-1,1-difluoroethyl)phosphane",N,PC(CBr)(F)F,"InChI=1S/C2H4BrF2P/c3-1-2(4,5)6/h1,6H2",InChIKey=VBFNXHQQKTUMMH-UHFFFAOYSA-N,95.47,Pr,    95.47(BP est)    -62.00(MP est)      ----(BP exp)      ----(MP exp)  PC(CBr)(F)F ,-62,Pred,N
C2H4BrF2P,PC(F)C(Br)F,10,6,9384,176.929,"(2-bromo-1,2-difluoroethyl)phosphane",N,PC(F)C(Br)F,"InChI=1S/C2H4BrF2P/c3-1(4)2(5)6/h1-2H,6H2",InChIKey=KINOMKAARHYSPB-UHFFFAOYSA-N,90.45,Pr,    90.45(BP est)    -79.68(MP est)      ----(BP exp)      ----(MP exp)  PC(F)C(Br)F ,-79.68,Pred,N
C2H4BrF2P,PCC(F)(Br)F,10,6,9385,176.929,"(2-bromo-2,2-difluoroethyl)phosphane",N,PCC(F)(Br)F,"InChI=1S/C2H4BrF2P/c3-2(4,5)1-6/h1,6H2",InChIKey=TXPXIRRKCLOEKA-UHFFFAOYSA-N,95.47,Pr,    95.47(BP est)    -62.00(MP est)      ----(BP exp)      ----(MP exp)  PCC(F)(Br)F ,-62,Pred,N
C2H4BrF2P,CPC(F)(Br)F,10,6,9386,176.929,(bromodifluoromethyl)(methyl)phosphane,N,CPC(F)(Br)F,"InChI=1S/C2H4BrF2P/c1-6-2(3,4)5/h6H,1H3",InChIKey=LTHJSZGPNVJEGN-UHFFFAOYSA-N,74.34,Pr,    74.34(BP est)    -76.36(MP est)      ----(BP exp)      ----(MP exp)  CPC(F)(Br)F ,-76.36,Pred,N
C2H4BrF2P,FCPC(Br)F,10,6,9387,176.929,(bromofluoromethyl)(fluoromethyl)phosphane,N,FCPC(Br)F,"InChI=1S/C2H4BrF2P/c3-2(5)6-1-4/h2,6H,1H2",InChIKey=KWYLFSLXYNLREM-UHFFFAOYSA-N,84.17,Pr,    84.17(BP est)    -82.20(MP est)      ----(BP exp)      ----(MP exp)  FCPC(Br)F ,-82.2,Pred,N
C2H4BrF2P,BrCPC(F)F,10,6,9388,176.929,(bromomethyl)(difluoromethyl)phosphane,N,BrCPC(F)F,"InChI=1S/C2H4BrF2P/c3-1-6-2(4)5/h2,6H,1H2",InChIKey=DUVXDRFOXWOVFW-UHFFFAOYSA-N,84.17,Pr,    84.17(BP est)    -82.20(MP est)      ----(BP exp)      ----(MP exp)  BrCPC(F)F ,-82.2,Pred,N
C3H3BrClP,BrC(C#C)(P)Cl,9,6,9568,185.385,(1-bromo-1-chloroprop-2-yn-1-yl)phosphane,N,BrC(C#C)(P)Cl,"InChI=1S/C3H3BrClP/c1-2-3(4,5)6/h1H,6H2",InChIKey=NJQHJRAEWNSEMH-UHFFFAOYSA-N,158.45,Pr,   158.45(BP est)     -0.13(MP est)      ----(BP exp)      ----(MP exp)  BrC(C#C)(P)Cl ,-0.13,Pred,N
C3H3BrClP,PC(Br)C#CCl,9,6,9569,185.385,(1-bromo-3-chloroprop-2-yn-1-yl)phosphane,N,PC(Br)C#CCl,"InChI=1S/C3H3BrClP/c4-3(6)1-2-5/h3H,6H2",InChIKey=CYOAHBMEFDNOSE-UHFFFAOYSA-N,173.03,Pr,   173.03(BP est)     24.98(MP est)      ----(BP exp)      ----(MP exp)  PC(Br)C#CCl ,24.98,Pred,N
C3H3BrClP,PC(Cl)C#CBr,9,6,9570,185.385,(3-bromo-1-chloroprop-2-yn-1-yl)phosphane,N,PC(Cl)C#CBr,"InChI=1S/C3H3BrClP/c4-2-1-3(5)6/h3H,6H2",InChIKey=BQUZNMBNHSZHQR-UHFFFAOYSA-N,186.2,Pr,   186.20(BP est)     28.83(MP est)      ----(BP exp)      ----(MP exp)  PC(Cl)C#CBr ,28.83,Pred,N
C3H3BrClP,BrC(PC#C)Cl,9,6,9571,185.385,(bromochloromethyl)(ethynyl)phosphane,N,BrC(PC#C)Cl,"InChI=1S/C3H3BrClP/c1-2-6-3(4)5/h1,3,6H",InChIKey=ISUYTCSACXEZRF-UHFFFAOYSA-N,160.21,Pr,   160.21(BP est)    -16.51(MP est)      ----(BP exp)      ----(MP exp)  BrC(PC#C)Cl ,-16.51,Pred,N
C3H3BrClP,ClCPC#CBr,9,6,9572,185.385,(bromoethynyl)(chloromethyl)phosphane,N,ClCPC#CBr,"InChI=1S/C3H3BrClP/c4-1-2-6-3-5/h6H,3H2",InChIKey=ODHYJDILEAGNAW-UHFFFAOYSA-N,192.1,Pr,   192.10(BP est)     29.87(MP est)      ----(BP exp)      ----(MP exp)  ClCPC#CBr ,29.87,Pred,N
C3H3BrClP,BrCPC#CCl,9,6,9573,185.385,(bromomethyl)(chloroethynyl)phosphane,N,BrCPC#CCl,"InChI=1S/C3H3BrClP/c4-3-6-2-1-5/h6H,3H2",InChIKey=NLRIYIUHQWMZPF-UHFFFAOYSA-N,167.59,Pr,   167.59(BP est)     22.71(MP est)      ----(BP exp)      ----(MP exp)  BrCPC#CCl ,22.71,Pred,N
C3H3BrClP,BrC1(Cl)C=CP1,9,6,9574,185.385,"2-bromo-2-chloro-1,2-dihydrophosphete",N,BrC1(Cl)C=CP1,"InChI=1S/C3H3BrClP/c4-3(5)1-2-6-3/h1-2,6H",InChIKey=GLVLFINXIVFHLF-UHFFFAOYSA-N,148.87,Pr,   148.87(BP est)    -14.50(MP est)      ----(BP exp)      ----(MP exp)  BrC1(Cl)C=CP1 ,-14.5,Pred,N
C3H3BrClP,BrC1C(Cl)=CP1,9,6,9575,185.385,"2-bromo-3-chloro-1,2-dihydrophosphete",N,BrC1C(Cl)=CP1,"InChI=1S/C3H3BrClP/c4-3-2(5)1-6-3/h1,3,6H",InChIKey=GLKWBUKTFYWGSS-UHFFFAOYSA-N,156.62,Pr,   156.62(BP est)    -17.93(MP est)      ----(BP exp)      ----(MP exp)  BrC1C(Cl)=CP1 ,-17.93,Pred,N
C3H3BrClP,BrC1C=C(Cl)P1,9,6,9576,185.385,"2-bromo-4-chloro-1,2-dihydrophosphete",N,BrC1C=C(Cl)P1,"InChI=1S/C3H3BrClP/c4-2-1-3(5)6-2/h1-2,6H",InChIKey=VVDFUIXXHXQKGI-UHFFFAOYSA-N,156.62,Pr,   156.62(BP est)    -17.93(MP est)      ----(BP exp)      ----(MP exp)  BrC1C=C(Cl)P1 ,-17.93,Pred,N
C3H3BrClP,ClC1C(Br)=CP1,9,6,9577,185.385,"3-bromo-2-chloro-1,2-dihydrophosphete",N,ClC1C(Br)=CP1,"InChI=1S/C3H3BrClP/c4-2-1-6-3(2)5/h1,3,6H",InChIKey=DKXLQQXJHDQZDI-UHFFFAOYSA-N,170.23,Pr,   170.23(BP est)    -13.96(MP est)      ----(BP exp)      ----(MP exp)  ClC1C(Br)=CP1 ,-13.96,Pred,N
C3H3BrClP,ClC1=C(CP1)Br,9,6,9578,185.385,"3-bromo-4-chloro-1,2-dihydrophosphete",N,ClC1=C(CP1)Br,"InChI=1S/C3H3BrClP/c4-2-1-6-3(2)5/h6H,1H2",InChIKey=NABDBJCGWIHVOF-UHFFFAOYSA-N,161.04,Pr,   161.04(BP est)     -8.26(MP est)      ----(BP exp)      ----(MP exp)  ClC1=C(CP1)Br ,-8.26,Pred,N
C3H3BrClP,ClC1C=C(Br)P1,9,6,9579,185.385,"4-bromo-2-chloro-1,2-dihydrophosphete",N,ClC1C=C(Br)P1,"InChI=1S/C3H3BrClP/c4-2-1-3(5)6-2/h1,3,6H",InChIKey=VCSFRZVROUENPV-UHFFFAOYSA-N,170.23,Pr,   170.23(BP est)    -13.96(MP est)      ----(BP exp)      ----(MP exp)  ClC1C=C(Br)P1 ,-13.96,Pred,N
C3H3BrClP,BrC1=C(CP1)Cl,9,6,9580,185.385,"4-bromo-3-chloro-1,2-dihydrophosphete",N,BrC1=C(CP1)Cl,"InChI=1S/C3H3BrClP/c4-3-2(5)1-6-3/h6H,1H2",InChIKey=NIAYCTGEUPMVOQ-UHFFFAOYSA-N,161.04,Pr,   161.04(BP est)     -8.26(MP est)      ----(BP exp)      ----(MP exp)  BrC1=C(CP1)Cl ,-8.26,Pred,N
C2HBrClOP,O=PC(Br)=CCl,7,6,9644,187.357,(1-bromo-2-chlorovinyl)(oxo)phosphane,N,O=PC(Br)=CCl,InChI=1S/C2HBrClOP/c3-2(1-4)6-5/h1H,InChIKey=MSIJLJZUSLKWLS-UHFFFAOYSA-N,191.66,Pr,   191.66(BP est)    -12.78(MP est)      ----(BP exp)      ----(MP exp)  O=PC(Br)=CCl ,-12.78,Pred,N
C2HBrClOP,O=PC(Cl)=CBr,7,6,9645,187.357,(2-bromo-1-chlorovinyl)(oxo)phosphane,N,O=PC(Cl)=CBr,InChI=1S/C2HBrClOP/c3-1-2(4)6-5/h1H,InChIKey=PEELYMBYMIWRBD-UHFFFAOYSA-N,191.66,Pr,   191.66(BP est)    -12.78(MP est)      ----(BP exp)      ----(MP exp)  O=PC(Cl)=CBr ,-12.78,Pred,N
C2HBrClOP,O=PC=C(Br)Cl,7,6,9646,187.357,(2-bromo-2-chlorovinyl)(oxo)phosphane,N,O=PC=C(Br)Cl,InChI=1S/C2HBrClOP/c3-2(4)1-6-5/h1H,InChIKey=MUADEKPSNQDCMR-UHFFFAOYSA-N,191.66,Pr,   191.66(BP est)    -12.78(MP est)      ----(BP exp)      ----(MP exp)  O=PC=C(Br)Cl ,-12.78,Pred,N
C3H5BrClP,BrC(C=C)(P)Cl,11,6,9647,187.401,(1-bromo-1-chloroallyl)phosphane,N,BrC(C=C)(P)Cl,"InChI=1S/C3H5BrClP/c1-2-3(4,5)6/h2H,1,6H2",InChIKey=KZBSNANVLDPUOY-UHFFFAOYSA-N,149.12,Pr,   149.12(BP est)    -27.21(MP est)      ----(BP exp)      ----(MP exp)  BrC(C=C)(P)Cl ,-27.21,Pred,N
C3H5BrClP,BrC(P)C(Cl)=C,11,6,9648,187.401,(1-bromo-2-chloroallyl)phosphane,N,BrC(P)C(Cl)=C,"InChI=1S/C3H5BrClP/c1-2(5)3(4)6/h3H,1,6H2",InChIKey=FSWUDBGSLNSYEM-UHFFFAOYSA-N,149.89,Pr,   149.89(BP est)    -42.68(MP est)      ----(BP exp)      ----(MP exp)  BrC(P)C(Cl)=C ,-42.68,Pred,N
C3H5BrClP,CPC(Br)=CCl,11,6,9649,187.401,(1-bromo-2-chlorovinyl)(methyl)phosphane,N,CPC(Br)=CCl,"InChI=1S/C3H5BrClP/c1-6-3(4)2-5/h2,6H,1H3",InChIKey=SJRJRCUJLDOCPV-UHFFFAOYSA-N,152.67,Pr,   152.67(BP est)    -44.21(MP est)      ----(BP exp)      ----(MP exp)  CPC(Br)=CCl ,-44.21,Pred,N
C3H5BrClP,PC(Br)C=CCl,11,6,9650,187.401,(1-bromo-3-chloroallyl)phosphane,N,PC(Br)C=CCl,"InChI=1S/C3H5BrClP/c4-3(6)1-2-5/h1-3H,6H2",InChIKey=JQBYMKYWCZFPKS-UHFFFAOYSA-N,164.17,Pr,   164.17(BP est)    -33.19(MP est)      ----(BP exp)      ----(MP exp)  PC(Br)C=CCl ,-33.19,Pred,N
C3H5BrClP,ClCPC(Br)=C,11,6,9651,187.401,(1-bromovinyl)(chloromethyl)phosphane,N,ClCPC(Br)=C,"InChI=1S/C3H5BrClP/c1-3(4)6-2-5/h6H,1-2H2",InChIKey=HYAKQTBEJRVAJP-UHFFFAOYSA-N,169.86,Pr,   169.86(BP est)    -37.53(MP est)      ----(BP exp)      ----(MP exp)  ClCPC(Br)=C ,-37.53,Pred,N
C3H5BrClP,PC(Cl)C(Br)=C,11,6,9652,187.401,(2-bromo-1-chloroallyl)phosphane,N,PC(Cl)C(Br)=C,"InChI=1S/C3H5BrClP/c1-2(4)3(5)6/h3H,1,6H2",InChIKey=MHXHOGUGCYDLEV-UHFFFAOYSA-N,163.68,Pr,   163.68(BP est)    -38.66(MP est)      ----(BP exp)      ----(MP exp)  PC(Cl)C(Br)=C ,-38.66,Pred,N
C3H5BrClP,ClC1(P)CC1Br,11,6,9653,187.401,(2-bromo-1-chlorocyclopropyl)phosphane,N,ClC1(P)CC1Br,"InChI=1S/C3H5BrClP/c4-2-1-3(2,5)6/h2H,1,6H2",InChIKey=WMRBJGUGCPYVAM-UHFFFAOYSA-N,158.47,Pr,   158.47(BP est)     -6.02(MP est)      ----(BP exp)      ----(MP exp)  ClC1(P)CC1Br ,-6.02,Pred,N
C3H5BrClP,CPC(Cl)=CBr,11,6,9654,187.401,(2-bromo-1-chlorovinyl)(methyl)phosphane,N,CPC(Cl)=CBr,"InChI=1S/C3H5BrClP/c1-6-3(5)2-4/h2,6H,1H3",InChIKey=UQJGQXLKNDABJL-UHFFFAOYSA-N,152.67,Pr,   152.67(BP est)    -44.21(MP est)      ----(BP exp)      ----(MP exp)  CPC(Cl)=CBr ,-44.21,Pred,N
C3H5BrClP,BrC1(Cl)C(P)C1,11,6,9655,187.401,(2-bromo-2-chlorocyclopropyl)phosphane,N,BrC1(Cl)C(P)C1,"InChI=1S/C3H5BrClP/c4-3(5)1-2(3)6/h2H,1,6H2",InChIKey=ROIMREGXDVUJGA-UHFFFAOYSA-N,158.47,Pr,   158.47(BP est)     -6.02(MP est)      ----(BP exp)      ----(MP exp)  BrC1(Cl)C(P)C1 ,-6.02,Pred,N
C3H5BrClP,CPC=C(Br)Cl,11,6,9656,187.401,(2-bromo-2-chlorovinyl)(methyl)phosphane,N,CPC=C(Br)Cl,"InChI=1S/C3H5BrClP/c1-6-2-3(4)5/h2,6H,1H3",InChIKey=CRRHQDIAHKOQBI-UHFFFAOYSA-N,152.67,Pr,   152.67(BP est)    -44.21(MP est)      ----(BP exp)      ----(MP exp)  CPC=C(Br)Cl ,-44.21,Pred,N
C3H5BrClP,PCC(Br)=CCl,11,6,9657,187.401,(2-bromo-3-chloroallyl)phosphane,N,PCC(Br)=CCl,"InChI=1S/C3H5BrClP/c4-3(1-5)2-6/h1H,2,6H2",InChIKey=ZTNMFUSLKAJNFS-UHFFFAOYSA-N,171.2,Pr,   171.20(BP est)    -30.62(MP est)      ----(BP exp)      ----(MP exp)  PCC(Br)=CCl ,-30.62,Pred,N
C3H5BrClP,ClCPC=CBr,11,6,9658,187.401,(2-bromovinyl)(chloromethyl)phosphane,N,ClCPC=CBr,"InChI=1S/C3H5BrClP/c4-1-2-6-3-5/h1-2,6H,3H2",InChIKey=OFHXPFQULIBSHP-UHFFFAOYSA-N,183.59,Pr,   183.59(BP est)    -28.21(MP est)      ----(BP exp)      ----(MP exp)  ClCPC=CBr ,-28.21,Pred,N
C3H5BrClP,PC(Cl)C=CBr,11,6,9659,187.401,(3-bromo-1-chloroallyl)phosphane,N,PC(Cl)C=CBr,"InChI=1S/C3H5BrClP/c4-2-1-3(5)6/h1-3H,6H2",InChIKey=LLPUJVQTRYXHOO-UHFFFAOYSA-N,177.58,Pr,   177.58(BP est)    -29.28(MP est)      ----(BP exp)      ----(MP exp)  PC(Cl)C=CBr ,-29.28,Pred,N
C3H5BrClP,PCC(Cl)=CBr,11,6,9660,187.401,(3-bromo-2-chloroallyl)phosphane,N,PCC(Cl)=CBr,"InChI=1S/C3H5BrClP/c4-1-3(5)2-6/h1H,2,6H2",InChIKey=LQPZJDBPTZTKHA-UHFFFAOYSA-N,171.2,Pr,   171.20(BP est)    -30.62(MP est)      ----(BP exp)      ----(MP exp)  PCC(Cl)=CBr ,-30.62,Pred,N
C3H5BrClP,PCC=C(Br)Cl,11,6,9661,187.401,(3-bromo-3-chloroallyl)phosphane,N,PCC=C(Br)Cl,"InChI=1S/C3H5BrClP/c4-3(5)1-2-6/h1H,2,6H2",InChIKey=QWTWITXXOHUVQW-UHFFFAOYSA-N,171.2,Pr,   171.20(BP est)    -30.62(MP est)      ----(BP exp)      ----(MP exp)  PCC=C(Br)Cl ,-30.62,Pred,N
C3H5BrClP,BrC(PC=C)Cl,11,6,9662,187.401,(bromochloromethyl)(vinyl)phosphane,N,BrC(PC=C)Cl,"InChI=1S/C3H5BrClP/c1-2-6-3(4)5/h2-3,6H,1H2",InChIKey=GEYLKAACRSRPQV-UHFFFAOYSA-N,150.92,Pr,   150.92(BP est)    -43.59(MP est)      ----(BP exp)      ----(MP exp)  BrC(PC=C)Cl ,-43.59,Pred,N
C3H5BrClP,BrCPC(Cl)=C,11,6,9663,187.401,(bromomethyl)(1-chlorovinyl)phosphane,N,BrCPC(Cl)=C,"InChI=1S/C3H5BrClP/c1-3(5)6-2-4/h6H,1-2H2",InChIKey=KKLXYZRMBCKCPR-UHFFFAOYSA-N,144.2,Pr,   144.20(BP est)    -45.03(MP est)      ----(BP exp)      ----(MP exp)  BrCPC(Cl)=C ,-45.03,Pred,N
C3H5BrClP,BrCPC=CCl,11,6,9664,187.401,(bromomethyl)(2-chlorovinyl)phosphane,N,BrCPC=CCl,"InChI=1S/C3H5BrClP/c4-3-6-2-1-5/h1-2,6H,3H2",InChIKey=RFASBJVZRNTURT-UHFFFAOYSA-N,158.63,Pr,   158.63(BP est)    -35.49(MP est)      ----(BP exp)      ----(MP exp)  BrCPC=CCl ,-35.49,Pred,N
C3H5BrClP,BrC(P1CC1)Cl,11,6,9665,187.401,1-(bromochloromethyl)phosphirane,N,BrC(P1CC1)Cl,"InChI=1S/C3H5BrClP/c4-3(5)6-1-2-6/h3H,1-2H2",InChIKey=VNWDUVBDAFVYIN-UHFFFAOYSA-N,161.45,Pr,   161.45(BP est)    -27.46(MP est)      ----(BP exp)      ----(MP exp)  BrC(P1CC1)Cl ,-27.46,Pred,N