Formula,SMILES,Tot_atoms,Tot_nH_atoms,Dataset_no,Molecular_weight,IUPAC_chemname,Metalloid,EPISUITE,InChI_Code,InChI_Key,Boiling_Point,BP_basis,EPIsuite_output,MP,Basis,Life
C2H7O2PS,S=P(O)(OC)C,13,6,6416,126.11,O-methyl O-hydrogen methylphosphonothioate,N,S=P(O)(OC)C,"InChI=1S/C2H7O2PS/c1-4-5(2,3)6/h1-2H3,(H,3,6)",InChIKey=CLJZCBKOLLCYLB-UHFFFAOYSA-N,196.88,Pr,   196.88(BP est)    -81.44(MP est)      ----(BP exp)      ----(MP exp)  S=P(O)(OC)C ,-81.44,Pred,N
C2HClFOP,O=PC(Cl)=CF,7,6,6430,126.451,(1-chloro-2-fluorovinyl)(oxo)phosphane,N,O=PC(Cl)=CF,InChI=1S/C2HClFOP/c3-2(1-4)6-5/h1H,InChIKey=WJTJQXQVWMQTPR-UHFFFAOYSA-N,123.41,Pr,   123.41(BP est)    -62.31(MP est)      ----(BP exp)      ----(MP exp)  O=PC(Cl)=CF ,-62.31,Pred,N
C2HClFOP,O=PC(F)=CCl,7,6,6431,126.451,(2-chloro-1-fluorovinyl)(oxo)phosphane,N,O=PC(F)=CCl,InChI=1S/C2HClFOP/c3-1-2(4)6-5/h1H,InChIKey=IGBYHNHVVSNABX-UHFFFAOYSA-N,123.41,Pr,   123.41(BP est)    -62.31(MP est)      ----(BP exp)      ----(MP exp)  O=PC(F)=CCl ,-62.31,Pred,N
C2HClFOP,O=PC=C(Cl)F,7,6,6432,126.451,(2-chloro-2-fluorovinyl)(oxo)phosphane,N,O=PC=C(Cl)F,InChI=1S/C2HClFOP/c3-2(4)1-6-5/h1H,InChIKey=RDGMFDBCXUFTCT-UHFFFAOYSA-N,123.41,Pr,   123.41(BP est)    -62.31(MP est)      ----(BP exp)      ----(MP exp)  O=PC=C(Cl)F ,-62.31,Pred,N
C2H4ClO2P,O=P(C(Cl)=C)O,10,6,6433,126.476,(1-chlorovinyl)phosphinic acid,N,O=P(C(Cl)=C)O,"InChI=1S/C2H4ClO2P/c1-2(3)6(4)5/h6H,1H2,(H,4,5)",InChIKey=CULOPVQDUNULJO-UHFFFAOYSA-N,206.88,Pr,   206.88(BP est)    -14.35(MP est)      ----(BP exp)      ----(MP exp)  O=P(C(Cl)=C)O ,-14.35,Pred,N
C2H4ClO2P,O=P(C=CCl)O,10,6,6435,126.476,(2-chlorovinyl)phosphinic acid,N,O=P(C=CCl)O,"InChI=1S/C2H4ClO2P/c3-1-2-6(4)5/h1-2,6H,(H,4,5)",InChIKey=NOPUYBNPYBQAJJ-UHFFFAOYSA-N,219.53,Pr,   219.53(BP est)     -5.34(MP est)      ----(BP exp)      ----(MP exp)  O=P(C=CCl)O ,-5.34,Pred,N
C2H4ClO2P,O=P1(O)C(Cl)C1,10,6,6437,126.476,2-chloro-1-hydroxyphosphirane 1-oxide,N,O=P1(O)C(Cl)C1,"InChI=1S/C2H4ClO2P/c3-2-1-6(2,4)5/h2H,1H2,(H,4,5)",InChIKey=OZBNIWWXYPXVCM-UHFFFAOYSA-N,225.39,Pr,   225.39(BP est)      1.46(MP est)      ----(BP exp)      ----(MP exp)  O=P1(O)C(Cl)C1 ,1.46,Pred,N
C3H5ClFP,PC(C=C)(Cl)F,11,6,6438,126.495,(1-chloro-1-fluoroallyl)phosphane,N,PC(C=C)(Cl)F,"InChI=1S/C3H5ClFP/c1-2-3(4,5)6/h2H,1,6H2",InChIKey=JRJUEDBKWFTUNM-UHFFFAOYSA-N,75.17,Pr,    75.17(BP est)    -78.41(MP est)      ----(BP exp)      ----(MP exp)  PC(C=C)(Cl)F ,-78.41,Pred,N
C3H5ClFP,PC(Cl)C(F)=C,11,6,6439,126.495,(1-chloro-2-fluoroallyl)phosphane,N,PC(Cl)C(F)=C,"InChI=1S/C3H5ClFP/c1-2(5)3(4)6/h3H,1,6H2",InChIKey=JASPTFKICUPMTD-UHFFFAOYSA-N,91.62,Pr,    91.62(BP est)    -89.30(MP est)      ----(BP exp)      ----(MP exp)  PC(Cl)C(F)=C ,-89.3,Pred,N
C3H5ClFP,CPC(Cl)=CF,11,6,6440,126.495,(1-chloro-2-fluorovinyl)(methyl)phosphane,N,CPC(Cl)=CF,"InChI=1S/C3H5ClFP/c1-6-3(4)2-5/h2,6H,1H3",InChIKey=WGWBJIQMGOPDME-UHFFFAOYSA-N,79.17,Pr,    79.17(BP est)    -95.28(MP est)      ----(BP exp)      ----(MP exp)  CPC(Cl)=CF ,-95.28,Pred,N
C3H5ClFP,PC(Cl)C=CF,11,6,6441,126.495,(1-chloro-3-fluoroallyl)phosphane,N,PC(Cl)C=CF,"InChI=1S/C3H5ClFP/c4-3(6)1-2-5/h1-3H,6H2",InChIKey=OTTUXYBQSKDLPD-UHFFFAOYSA-N,107.38,Pr,   107.38(BP est)    -79.38(MP est)      ----(BP exp)      ----(MP exp)  PC(Cl)C=CF ,-79.38,Pred,N
C3H5ClFP,FCPC(Cl)=C,11,6,6442,126.495,(1-chlorovinyl)(fluoromethyl)phosphane,N,FCPC(Cl)=C,"InChI=1S/C3H5ClFP/c1-3(4)6-2-5/h6H,1-2H2",InChIKey=ANUPGFVSHLKWCZ-UHFFFAOYSA-N,69.62,Pr,    69.62(BP est)    -96.41(MP est)      ----(BP exp)      ----(MP exp)  FCPC(Cl)=C ,-96.41,Pred,N
C3H5ClFP,PC(F)C(Cl)=C,11,6,6443,126.495,(2-chloro-1-fluoroallyl)phosphane,N,PC(F)C(Cl)=C,"InChI=1S/C3H5ClFP/c1-2(4)3(5)6/h3H,1,6H2",InChIKey=XFCXHUHOZNAAES-UHFFFAOYSA-N,76.03,Pr,    76.03(BP est)    -93.85(MP est)      ----(BP exp)      ----(MP exp)  PC(F)C(Cl)=C ,-93.85,Pred,N
C3H5ClFP,CPC(F)=CCl,11,6,6444,126.495,(2-chloro-1-fluorovinyl)(methyl)phosphane,N,CPC(F)=CCl,"InChI=1S/C3H5ClFP/c1-6-3(5)2-4/h2,6H,1H3",InChIKey=LIXDIRIZNOLJEL-UHFFFAOYSA-N,79.17,Pr,    79.17(BP est)    -95.28(MP est)      ----(BP exp)      ----(MP exp)  CPC(F)=CCl ,-95.28,Pred,N
C3H5ClFP,CPC=C(Cl)F,11,6,6445,126.495,(2-chloro-2-fluorovinyl)(methyl)phosphane,N,CPC=C(Cl)F,"InChI=1S/C3H5ClFP/c1-6-2-3(4)5/h2,6H,1H3",InChIKey=JVUYWWAJFJGRLQ-UHFFFAOYSA-N,79.17,Pr,    79.17(BP est)    -95.28(MP est)      ----(BP exp)      ----(MP exp)  CPC=C(Cl)F ,-95.28,Pred,N
C3H5ClFP,PCC(Cl)=CF,11,6,6446,126.495,(2-chloro-3-fluoroallyl)phosphane,N,PCC(Cl)=CF,"InChI=1S/C3H5ClFP/c4-3(1-5)2-6/h1H,2,6H2",InChIKey=HWPZYEORWWXATJ-UHFFFAOYSA-N,100.15,Pr,   100.15(BP est)    -80.97(MP est)      ----(BP exp)      ----(MP exp)  PCC(Cl)=CF ,-80.97,Pred,N
C3H5ClFP,FCPC=CCl,11,6,6447,126.495,(2-chlorovinyl)(fluoromethyl)phosphane,N,FCPC=CCl,"InChI=1S/C3H5ClFP/c4-1-2-6-3-5/h1-2,6H,3H2",InChIKey=VCJDTECQZSCNLD-UHFFFAOYSA-N,85.91,Pr,    85.91(BP est)    -86.33(MP est)      ----(BP exp)      ----(MP exp)  FCPC=CCl ,-86.33,Pred,N
C3H5ClFP,PC(F)C=CCl,11,6,6448,126.495,(3-chloro-1-fluoroallyl)phosphane,N,PC(F)C=CCl,"InChI=1S/C3H5ClFP/c4-2-1-3(5)6/h1-3H,6H2",InChIKey=XJGOIWRTDSTBMX-UHFFFAOYSA-N,92.17,Pr,    92.17(BP est)    -83.82(MP est)      ----(BP exp)      ----(MP exp)  PC(F)C=CCl ,-83.82,Pred,N
C3H5ClFP,PCC(F)=CCl,11,6,6449,126.495,(3-chloro-2-fluoroallyl)phosphane,N,PCC(F)=CCl,"InChI=1S/C3H5ClFP/c4-1-3(5)2-6/h1H,2,6H2",InChIKey=AVNLCUWLWMCILO-UHFFFAOYSA-N,100.15,Pr,   100.15(BP est)    -80.97(MP est)      ----(BP exp)      ----(MP exp)  PCC(F)=CCl ,-80.97,Pred,N
C3H5ClFP,PCC=C(Cl)F,11,6,6450,126.495,(3-chloro-3-fluoroallyl)phosphane,N,PCC=C(Cl)F,"InChI=1S/C3H5ClFP/c4-3(5)1-2-6/h1H,2,6H2",InChIKey=PUJGPBPLRLDZJC-UHFFFAOYSA-N,100.15,Pr,   100.15(BP est)    -80.97(MP est)      ----(BP exp)      ----(MP exp)  PCC=C(Cl)F ,-80.97,Pred,N
C3H5ClFP,ClC(PC=C)F,11,6,6451,126.495,(chlorofluoromethyl)(vinyl)phosphane,N,ClC(PC=C)F,"InChI=1S/C3H5ClFP/c1-2-6-3(4)5/h2-3,6H,1H2",InChIKey=QIDQGSVJNAYEBB-UHFFFAOYSA-N,77.19,Pr,    77.19(BP est)    -94.71(MP est)      ----(BP exp)      ----(MP exp)  ClC(PC=C)F ,-94.71,Pred,N
C3H5ClFP,ClCPC(F)=C,11,6,6452,126.495,(chloromethyl)(1-fluorovinyl)phosphane,N,ClCPC(F)=C,"InChI=1S/C3H5ClFP/c1-3(5)6-2-4/h6H,1-2H2",InChIKey=NMJZIPOETCBDSB-UHFFFAOYSA-N,98.63,Pr,    98.63(BP est)    -87.94(MP est)      ----(BP exp)      ----(MP exp)  ClCPC(F)=C ,-87.94,Pred,N
C3H5ClFP,ClCPC=CF,11,6,6453,126.495,(chloromethyl)(2-fluorovinyl)phosphane,N,ClCPC=CF,"InChI=1S/C3H5ClFP/c4-3-6-2-1-5/h1-2,6H,3H2",InChIKey=UPYCZQLXXMHFQY-UHFFFAOYSA-N,114.22,Pr,   114.22(BP est)    -78.06(MP est)      ----(BP exp)      ----(MP exp)  ClCPC=CF ,-78.06,Pred,N
C3H5ClFP,ClC(P1CC1)F,11,6,6454,126.495,1-(chlorofluoromethyl)phosphirane,N,ClC(P1CC1)F,"InChI=1S/C3H5ClFP/c4-3(5)6-1-2-6/h3H,1-2H2",InChIKey=WNBXZBOEEYWFRD-UHFFFAOYSA-N,89.1,Pr,    89.10(BP est)    -78.19(MP est)      ----(BP exp)      ----(MP exp)  ClC(P1CC1)F ,-78.19,Pred,N
C3H5ClFP,ClCP1C(F)C1,11,6,6455,126.495,1-(chloromethyl)-2-fluorophosphirane,N,ClCP1C(F)C1,"InChI=1S/C3H5ClFP/c4-2-6-1-3(6)5/h3H,1-2H2",InChIKey=QTFUBOYPJQJIMF-UHFFFAOYSA-N,109.75,Pr,   109.75(BP est)    -66.78(MP est)      ----(BP exp)      ----(MP exp)  ClCP1C(F)C1 ,-66.78,Pred,N
C3H5ClFP,FCP1C(Cl)C1,11,6,6456,126.495,2-chloro-1-(fluoromethyl)phosphirane,N,FCP1C(Cl)C1,"InChI=1S/C3H5ClFP/c4-3-1-6(3)2-5/h3H,1-2H2",InChIKey=DDEDZQJDHWDFIS-UHFFFAOYSA-N,96.71,Pr,    96.71(BP est)    -70.59(MP est)      ----(BP exp)      ----(MP exp)  FCP1C(Cl)C1 ,-70.59,Pred,N
C3H5ClFP,CP1C(F)(Cl)C1,11,6,6457,126.495,2-chloro-2-fluoro-1-methylphosphirane,N,CP1C(F)(Cl)C1,"InChI=1S/C3H5ClFP/c1-6-2-3(6,4)5/h2H2,1H3",InChIKey=HFZLIOSNZNYONL-UHFFFAOYSA-N,70.3,Pr,    70.30(BP est)    -66.35(MP est)      ----(BP exp)      ----(MP exp)  CP1C(F)(Cl)C1 ,-66.35,Pred,N
C3H5ClFP,ClC1(F)CCP1,11,6,6458,126.495,2-chloro-2-fluorophosphetane,N,ClC1(F)CCP1,"InChI=1S/C3H5ClFP/c4-3(5)1-2-6-3/h6H,1-2H2",InChIKey=WXXUOLLKGPJBOD-UHFFFAOYSA-N,71.6,Pr,    71.60(BP est)    -67.05(MP est)      ----(BP exp)      ----(MP exp)  ClC1(F)CCP1 ,-67.05,Pred,N
C3H5ClFP,CP1C(F)C1Cl,11,6,6459,126.495,2-chloro-3-fluoro-1-methylphosphirane,N,CP1C(F)C1Cl,"InChI=1S/C3H5ClFP/c1-6-2(4)3(6)5/h2-3H,1H3",InChIKey=GMABXAHUVHGLHQ-UHFFFAOYSA-N,89.67,Pr,    89.67(BP est)    -74.77(MP est)      ----(BP exp)      ----(MP exp)  CP1C(F)C1Cl ,-74.77,Pred,N
C3H5ClFP,ClC1C(F)CP1,11,6,6460,126.495,2-chloro-3-fluorophosphetane,N,ClC1C(F)CP1,"InChI=1S/C3H5ClFP/c4-3-2(5)1-6-3/h2-3,6H,1H2",InChIKey=BARCFNYRALLNQK-UHFFFAOYSA-N,90.93,Pr,    90.93(BP est)    -75.48(MP est)      ----(BP exp)      ----(MP exp)  ClC1C(F)CP1 ,-75.48,Pred,N
C3H5ClFP,ClC1CC(F)P1,11,6,6461,126.495,2-chloro-4-fluorophosphetane,N,ClC1CC(F)P1,"InChI=1S/C3H5ClFP/c4-2-1-3(5)6-2/h2-3,6H,1H2",InChIKey=KHJIDXKHQKIZKD-UHFFFAOYSA-N,90.93,Pr,    90.93(BP est)    -75.48(MP est)      ----(BP exp)      ----(MP exp)  ClC1CC(F)P1 ,-75.48,Pred,N
C3H5ClFP,FC1C(Cl)CP1,11,6,6462,126.495,3-chloro-2-fluorophosphetane,N,FC1C(Cl)CP1,"InChI=1S/C3H5ClFP/c4-2-1-6-3(2)5/h2-3,6H,1H2",InChIKey=MIFKILFMWBGUHJ-UHFFFAOYSA-N,90.93,Pr,    90.93(BP est)    -75.48(MP est)      ----(BP exp)      ----(MP exp)  FC1C(Cl)CP1 ,-75.48,Pred,N
C3H5ClFP,ClC1(F)CPC1,11,6,6463,126.495,3-chloro-3-fluorophosphetane,N,ClC1(F)CPC1,"InChI=1S/C3H5ClFP/c4-3(5)1-6-2-3/h6H,1-2H2",InChIKey=DYINMUOMLSOWEW-UHFFFAOYSA-N,71.6,Pr,    71.60(BP est)    -67.05(MP est)      ----(BP exp)      ----(MP exp)  ClC1(F)CPC1 ,-67.05,Pred,N
C3H8ClOP,ClC(POC)C,14,6,6465,126.52,(1-chloroethyl)(methoxy)phosphane,N,ClC(POC)C,"InChI=1S/C3H8ClOP/c1-3(4)6-5-2/h3,6H,1-2H3",InChIKey=GLDBEJSRSXBDPK-UHFFFAOYSA-N,101.99,Pr,   101.99(BP est)    -75.78(MP est)      ----(BP exp)      ----(MP exp)  ClC(POC)C ,-75.78,Pred,N
C3H8ClOP,O=P(C)C(Cl)C,14,6,6466,126.52,(1-chloroethyl)(methyl)phosphine oxide,N,O=P(C)C(Cl)C,"InChI=1S/C3H8ClOP/c1-3(4)6(2)5/h3,6H,1-2H3",InChIKey=FLCAYQRRYGFERW-UHFFFAOYSA-N,141.73,Pr,   141.73(BP est)    -57.79(MP est)      ----(BP exp)      ----(MP exp)  O=P(C)C(Cl)C ,-57.79,Pred,N
C3H8ClOP,ClCCPOC,14,6,6469,126.52,(2-chloroethyl)(methoxy)phosphane,N,ClCCPOC,"InChI=1S/C3H8ClOP/c1-5-6-3-2-4/h6H,2-3H2,1H3",InChIKey=RVPVILFNCNNGPP-UHFFFAOYSA-N,128.9,Pr,   128.90(BP est)    -60.42(MP est)      ----(BP exp)      ----(MP exp)  ClCCPOC ,-60.42,Pred,N
C3H8ClOP,O=P(C)CCCl,14,6,6470,126.52,(2-chloroethyl)(methyl)phosphine oxide,N,O=P(C)CCCl,"InChI=1S/C3H8ClOP/c1-6(5)3-2-4/h6H,2-3H2,1H3",InChIKey=POFHJPHEIAHSHQ-UHFFFAOYSA-N,166.86,Pr,   166.86(BP est)    -42.95(MP est)      ----(BP exp)      ----(MP exp)  O=P(C)CCCl ,-42.95,Pred,N
C3H8ClOP,O=P(CCl)CC,14,6,6474,126.52,(chloromethyl)(ethyl)phosphine oxide,N,O=P(CCl)CC,"InChI=1S/C3H8ClOP/c1-2-6(5)3-4/h6H,2-3H2,1H3",InChIKey=IDMSBLWXHXUEDQ-UHFFFAOYSA-N,166.86,Pr,   166.86(BP est)    -42.95(MP est)      ----(BP exp)      ----(MP exp)  O=P(CCl)CC ,-42.95,Pred,N
C3H8ClOP,CP(CCl)OC,14,6,6475,126.52,(chloromethyl)(methoxy)(methyl)phosphane,N,CP(CCl)OC,"InChI=1S/C3H8ClOP/c1-5-6(2)3-4/h3H2,1-2H3",InChIKey=IRPJGASBGKPWQO-UHFFFAOYSA-N,129.82,Pr,   129.82(BP est)    -60.84(MP est)      ----(BP exp)      ----(MP exp)  CP(CCl)OC ,-60.84,Pred,N
C3H8ClOP,O=P(CCl)(C)C,14,6,6476,126.52,(chloromethyl)dimethylphosphine oxide,N,O=P(CCl)(C)C,"InChI=1S/C3H8ClOP/c1-6(2,5)3-4/h3H2,1-2H3",InChIKey=VACOMSNNWGXHSF-UHFFFAOYSA-N,164.88,Pr,   164.88(BP est)    -51.71(MP est)      ----(BP exp)      ----(MP exp)  O=P(CCl)(C)C ,-51.71,Pred,N
CH5O3PS,O=P(O)(O)CS,11,6,6595,128.082,(mercaptomethyl)phosphonic acid,N,O=P(O)(O)CS,"InChI=1S/CH5O3PS/c2-5(3,4)1-6/h6H,1H2,(H2,2,3,4)",InChIKey=MJZCELCYTRONIX-UHFFFAOYSA-N,303.92,Pr,   303.92(BP est)     30.65(MP est)      ----(BP exp)      ----(MP exp)  O=P(O)(O)CS ,30.65,Pred,N
CH5O3PS,S=P(O)(O)OC,11,6,6596,128.082,"O-methyl O,O-dihydrogen phosphorothioate",N,S=P(O)(O)OC,"InChI=1S/CH5O3PS/c1-4-5(2,3)6/h1H3,(H2,2,3,6)",InChIKey=BOKOVLFWCAFYHP-UHFFFAOYSA-N,261.19,Pr,   261.19(BP est)    -37.89(MP est)      ----(BP exp)      ----(MP exp)  S=P(O)(O)OC ,-37.89,Pred,N
C2H3ClFOP,O=PC(C)(Cl)F,9,6,6598,128.467,(1-chloro-1-fluoroethyl)(oxo)phosphane,N,O=PC(C)(Cl)F,"InChI=1S/C2H3ClFOP/c1-2(3,4)6-5/h1H3",InChIKey=ONWAQWUAXGNNHD-UHFFFAOYSA-N,101.14,Pr,   101.14(BP est)    -58.08(MP est)      ----(BP exp)      ----(MP exp)  O=PC(C)(Cl)F ,-58.08,Pred,N
C2H3ClFOP,O=PC(Cl)CF,9,6,6599,128.467,(1-chloro-2-fluoroethyl)(oxo)phosphane,N,O=PC(Cl)CF,"InChI=1S/C2H3ClFOP/c3-2(1-4)6-5/h2H,1H2",InChIKey=UVWMXRIKLHJEOH-UHFFFAOYSA-N,123.29,Pr,   123.29(BP est)    -60.33(MP est)      ----(BP exp)      ----(MP exp)  O=PC(Cl)CF ,-60.33,Pred,N
C2H3ClFOP,O=PC(F)CCl,9,6,6601,128.467,(2-chloro-1-fluoroethyl)(oxo)phosphane,N,O=PC(F)CCl,"InChI=1S/C2H3ClFOP/c3-1-2(4)6-5/h2H,1H2",InChIKey=ATFZMADSZLGJOC-UHFFFAOYSA-N,135.79,Pr,   135.79(BP est)    -56.68(MP est)      ----(BP exp)      ----(MP exp)  O=PC(F)CCl ,-56.68,Pred,N
C2H3ClFOP,O=PCC(Cl)F,9,6,6603,128.467,(2-chloro-2-fluoroethyl)(oxo)phosphane,N,O=PCC(Cl)F,"InChI=1S/C2H3ClFOP/c3-2(4)1-6-5/h2H,1H2",InChIKey=HLMSJGBVCCNOEJ-UHFFFAOYSA-N,123.29,Pr,   123.29(BP est)    -60.33(MP est)      ----(BP exp)      ----(MP exp)  O=PCC(Cl)F ,-60.33,Pred,N
C2H3ClFOP,O=P1C(F)(Cl)C1,9,6,6606,128.467,2-chloro-2-fluorophosphirane 1-oxide,N,O=P1C(F)(Cl)C1,"InChI=1S/C2H3ClFOP/c3-2(4)1-6(2)5/h6H,1H2",InChIKey=KMZVGKCBIGBAGW-UHFFFAOYSA-N,112.01,Pr,   112.01(BP est)    -41.62(MP est)      ----(BP exp)      ----(MP exp)  O=P1C(F)(Cl)C1 ,-41.62,Pred,N
C2H3ClFOP,O=P1C(F)C1Cl,9,6,6608,128.467,2-chloro-3-fluorophosphirane 1-oxide,N,O=P1C(F)C1Cl,"InChI=1S/C2H3ClFOP/c3-1-2(4)6(1)5/h1-2,6H",InChIKey=KQPCLMPFNNIVEV-UHFFFAOYSA-N,130.17,Pr,   130.17(BP est)    -50.39(MP est)      ----(BP exp)      ----(MP exp)  O=P1C(F)C1Cl ,-50.39,Pred,N
C2H6ClO2P,O=P(C(Cl)C)O,12,6,6609,128.492,(1-chloroethyl)phosphinic acid,N,O=P(C(Cl)C)O,"InChI=1S/C2H6ClO2P/c1-2(3)6(4)5/h2,6H,1H3,(H,4,5)",InChIKey=YWBMKUFEMIJQKG-UHFFFAOYSA-N,214.21,Pr,   214.21(BP est)    -11.85(MP est)      ----(BP exp)      ----(MP exp)  O=P(C(Cl)C)O ,-11.85,Pred,N
C2H6ClO2P,O=P(CCCl)O,12,6,6611,128.492,(2-chloroethyl)phosphinic acid,N,O=P(CCCl)O,"InChI=1S/C2H6ClO2P/c3-1-2-6(4)5/h6H,1-2H2,(H,4,5)",InChIKey=FQWNBUQAWZFEDJ-UHFFFAOYSA-N,235.74,Pr,   235.74(BP est)      1.93(MP est)      ----(BP exp)      ----(MP exp)  O=P(CCCl)O ,1.93,Pred,N
C2H6ClO2P,O=P(O)(C)CCl,12,6,6613,128.492,(chloromethyl)(methyl)phosphinic acid,N,O=P(O)(C)CCl,"InChI=1S/C2H6ClO2P/c1-6(4,5)2-3/h2H2,1H3,(H,4,5)",InChIKey=JSTNOFBXLSGIPT-UHFFFAOYSA-N,234.05,Pr,   234.05(BP est)     -6.75(MP est)      ----(BP exp)      ----(MP exp)  O=P(O)(C)CCl ,-6.75,Pred,N
C2H6ClO2P,O=P(CCl)OC,12,6,6614,128.492,methyl (chloromethyl)phosphinate,N,O=P(CCl)OC,"InChI=1S/C2H6ClO2P/c1-5-6(4)2-3/h6H,2H2,1H3",InChIKey=DQLYCWYPMBYPEG-UHFFFAOYSA-N,167.69,Pr,   167.69(BP est)    -37.23(MP est)      ----(BP exp)      ----(MP exp)  O=P(CCl)OC ,-37.23,Pred,N
C3H7ClFP,CPC(C)(Cl)F,13,6,6616,128.511,(1-chloro-1-fluoroethyl)(methyl)phosphane,N,CPC(C)(Cl)F,"InChI=1S/C3H7ClFP/c1-3(4,5)6-2/h6H,1-2H3",InChIKey=VMFZBGPZKVRVRT-UHFFFAOYSA-N,55.32,Pr,    55.32(BP est)    -91.51(MP est)      ----(BP exp)      ----(MP exp)  CPC(C)(Cl)F ,-91.51,Pred,N
C3H7ClFP,PC(CC)(Cl)F,13,6,6617,128.511,(1-chloro-1-fluoropropyl)phosphane,N,PC(CC)(Cl)F,"InChI=1S/C3H7ClFP/c1-2-3(4,5)6/h2,6H2,1H3",InChIKey=QRQNBBMUYJOETJ-UHFFFAOYSA-N,77.03,Pr,    77.03(BP est)    -76.99(MP est)      ----(BP exp)      ----(MP exp)  PC(CC)(Cl)F ,-76.99,Pred,N
C3H7ClFP,CPC(Cl)CF,13,6,6618,128.511,(1-chloro-2-fluoroethyl)(methyl)phosphane,N,CPC(Cl)CF,"InChI=1S/C3H7ClFP/c1-6-3(4)2-5/h3,6H,2H2,1H3",InChIKey=XBJAOWXRNOQPTI-UHFFFAOYSA-N,79.05,Pr,    79.05(BP est)    -93.29(MP est)      ----(BP exp)      ----(MP exp)  CPC(Cl)CF ,-93.29,Pred,N
C3H7ClFP,PC(Cl)C(F)C,13,6,6619,128.511,(1-chloro-2-fluoropropyl)phosphane,N,PC(Cl)C(F)C,"InChI=1S/C3H7ClFP/c1-2(5)3(4)6/h2-3H,6H2,1H3",InChIKey=YPSOSZZHXBZMOJ-UHFFFAOYSA-N,85.38,Pr,    85.38(BP est)    -90.76(MP est)      ----(BP exp)      ----(MP exp)  PC(Cl)C(F)C ,-90.76,Pred,N
C3H7ClFP,PC(Cl)CCF,13,6,6620,128.511,(1-chloro-3-fluoropropyl)phosphane,N,PC(Cl)CCF,"InChI=1S/C3H7ClFP/c4-3(6)1-2-5/h3H,1-2,6H2",InChIKey=BVLPZPVFKGHHKK-UHFFFAOYSA-N,100.03,Pr,   100.03(BP est)    -78.98(MP est)      ----(BP exp)      ----(MP exp)  PC(Cl)CCF ,-78.98,Pred,N
C3H7ClFP,FCPC(Cl)C,13,6,6621,128.511,(1-chloroethyl)(fluoromethyl)phosphane,N,FCPC(Cl)C,"InChI=1S/C3H7ClFP/c1-3(4)6-2-5/h3,6H,2H2,1H3",InChIKey=CGWMQTAYAPCELL-UHFFFAOYSA-N,79.05,Pr,    79.05(BP est)    -93.29(MP est)      ----(BP exp)      ----(MP exp)  FCPC(Cl)C ,-93.29,Pred,N
C3H7ClFP,CPC(F)CCl,13,6,6622,128.511,(2-chloro-1-fluoroethyl)(methyl)phosphane,N,CPC(F)CCl,"InChI=1S/C3H7ClFP/c1-6-3(5)2-4/h3,6H,2H2,1H3",InChIKey=HQOUHAURFXDVAC-UHFFFAOYSA-N,92.45,Pr,    92.45(BP est)    -89.38(MP est)      ----(BP exp)      ----(MP exp)  CPC(F)CCl ,-89.38,Pred,N
C3H7ClFP,PC(F)C(Cl)C,13,6,6623,128.511,(2-chloro-1-fluoropropyl)phosphane,N,PC(F)C(Cl)C,"InChI=1S/C3H7ClFP/c1-2(4)3(5)6/h2-3H,6H2,1H3",InChIKey=GZXWANBMIDUKRZ-UHFFFAOYSA-N,85.38,Pr,    85.38(BP est)    -90.76(MP est)      ----(BP exp)      ----(MP exp)  PC(F)C(Cl)C ,-90.76,Pred,N
C3H7ClFP,CPCC(Cl)F,13,6,6624,128.511,(2-chloro-2-fluoroethyl)(methyl)phosphane,N,CPCC(Cl)F,"InChI=1S/C3H7ClFP/c1-6-2-3(4)5/h3,6H,2H2,1H3",InChIKey=TYWIALWXOSSIHF-UHFFFAOYSA-N,79.05,Pr,    79.05(BP est)    -93.29(MP est)      ----(BP exp)      ----(MP exp)  CPCC(Cl)F ,-93.29,Pred,N
C3H7ClFP,PCC(C)(Cl)F,13,6,6625,128.511,(2-chloro-2-fluoropropyl)phosphane,N,PCC(C)(Cl)F,"InChI=1S/C3H7ClFP/c1-3(4,5)2-6/h2,6H2,1H3",InChIKey=GCXTZAYTMJEJLH-UHFFFAOYSA-N,77.03,Pr,    77.03(BP est)    -76.99(MP est)      ----(BP exp)      ----(MP exp)  PCC(C)(Cl)F ,-76.99,Pred,N
C3H7ClFP,PCC(Cl)CF,13,6,6626,128.511,(2-chloro-3-fluoropropyl)phosphane,N,PCC(Cl)CF,"InChI=1S/C3H7ClFP/c4-3(1-5)2-6/h3H,1-2,6H2",InChIKey=SWOSXAZWENRTJL-UHFFFAOYSA-N,100.03,Pr,   100.03(BP est)    -78.98(MP est)      ----(BP exp)      ----(MP exp)  PCC(Cl)CF ,-78.98,Pred,N
C3H7ClFP,FCPCCCl,13,6,6627,128.511,(2-chloroethyl)(fluoromethyl)phosphane,N,FCPCCCl,"InChI=1S/C3H7ClFP/c4-1-2-6-3-5/h6H,1-3H2",InChIKey=FHQYZNGYZXWHRC-UHFFFAOYSA-N,106.94,Pr,   106.94(BP est)    -77.65(MP est)      ----(BP exp)      ----(MP exp)  FCPCCCl ,-77.65,Pred,N
C3H7ClFP,PC(F)CCCl,13,6,6628,128.511,(3-chloro-1-fluoropropyl)phosphane,N,PC(F)CCCl,"InChI=1S/C3H7ClFP/c4-2-1-3(5)6/h3H,1-2,6H2",InChIKey=QUMHGLFUBNCXSH-UHFFFAOYSA-N,113.01,Pr,   113.01(BP est)    -75.19(MP est)      ----(BP exp)      ----(MP exp)  PC(F)CCCl ,-75.19,Pred,N
C3H7ClFP,PCC(F)CCl,13,6,6629,128.511,(3-chloro-2-fluoropropyl)phosphane,N,PCC(F)CCl,"InChI=1S/C3H7ClFP/c4-1-3(5)2-6/h3H,1-2,6H2",InChIKey=BJEOIQDRFQLTFF-UHFFFAOYSA-N,113.01,Pr,   113.01(BP est)    -75.19(MP est)      ----(BP exp)      ----(MP exp)  PCC(F)CCl ,-75.19,Pred,N
C3H7ClFP,PCCC(Cl)F,13,6,6630,128.511,(3-chloro-3-fluoropropyl)phosphane,N,PCCC(Cl)F,"InChI=1S/C3H7ClFP/c4-3(5)1-2-6/h3H,1-2,6H2",InChIKey=GPFYRQMCPNGAKB-UHFFFAOYSA-N,100.03,Pr,   100.03(BP est)    -78.98(MP est)      ----(BP exp)      ----(MP exp)  PCCC(Cl)F ,-78.98,Pred,N
C3H7ClFP,ClC(PCC)F,13,6,6631,128.511,(chlorofluoromethyl)(ethyl)phosphane,N,ClC(PCC)F,"InChI=1S/C3H7ClFP/c1-2-6-3(4)5/h3,6H,2H2,1H3",InChIKey=FUAQFEWJDQHEQW-UHFFFAOYSA-N,79.05,Pr,    79.05(BP est)    -93.29(MP est)      ----(BP exp)      ----(MP exp)  ClC(PCC)F ,-93.29,Pred,N
C3H7ClFP,CP(C)C(Cl)F,13,6,6632,128.511,(chlorofluoromethyl)dimethylphosphane,N,CP(C)C(Cl)F,"InChI=1S/C3H7ClFP/c1-6(2)3(4)5/h3H,1-2H3",InChIKey=XYFMTMBIQGXTSI-UHFFFAOYSA-N,80.04,Pr,    80.04(BP est)    -93.69(MP est)      ----(BP exp)      ----(MP exp)  CP(C)C(Cl)F ,-93.69,Pred,N
C3H7ClFP,ClCPC(F)C,13,6,6633,128.511,(chloromethyl)(1-fluoroethyl)phosphane,N,ClCPC(F)C,"InChI=1S/C3H7ClFP/c1-3(5)6-2-4/h3,6H,2H2,1H3",InChIKey=QGRSNGYLWFQTJL-UHFFFAOYSA-N,92.45,Pr,    92.45(BP est)    -89.38(MP est)      ----(BP exp)      ----(MP exp)  ClCPC(F)C ,-89.38,Pred,N
C3H7ClFP,ClCPCCF,13,6,6634,128.511,(chloromethyl)(2-fluoroethyl)phosphane,N,ClCPCCF,"InChI=1S/C3H7ClFP/c4-3-6-2-1-5/h6H,1-3H2",InChIKey=ULABDNAPJDBIQS-UHFFFAOYSA-N,106.94,Pr,   106.94(BP est)    -77.65(MP est)      ----(BP exp)      ----(MP exp)  ClCPCCF ,-77.65,Pred,N