Formula,SMILES,Tot_atoms,Tot_nH_atoms,Dataset_no,Molecular_weight,IUPAC_chemname,Metalloid,EPISUITE,InChI_Code,InChI_Key,Boiling_Point,BP_basis,EPIsuite_output,MP,Basis,Life
C3H7ClFP,CP(CCl)CF,13,6,6635,128.511,(chloromethyl)(fluoromethyl)(methyl)phosphane,N,CP(CCl)CF,"InChI=1S/C3H7ClFP/c1-6(2-4)3-5/h2-3H2,1H3",InChIKey=ICGZVBHRTCIWJZ-UHFFFAOYSA-N,107.89,Pr,   107.89(BP est)    -78.06(MP est)      ----(BP exp)      ----(MP exp)  CP(CCl)CF ,-78.06,Pred,N
C2H2ClF2P,PC(Cl)=C(F)F,8,6,6734,130.459,"(1-chloro-2,2-difluorovinyl)phosphane",N,PC(Cl)=C(F)F,InChI=1S/C2H2ClF2P/c3-1(6)2(4)5/h6H2,InChIKey=JCPGTTRMJUDZBE-UHFFFAOYSA-N,71.3,Pr,    71.30(BP est)   -101.71(MP est)      ----(BP exp)      ----(MP exp)  PC(Cl)=C(F)F ,-101.71,Pred,N
C2H2ClF2P,PC(F)=C(Cl)F,8,6,6735,130.459,"(2-chloro-1,2-difluorovinyl)phosphane",N,PC(F)=C(Cl)F,InChI=1S/C2H2ClF2P/c3-1(4)2(5)6/h6H2,InChIKey=AONPDFNTAFAZHE-UHFFFAOYSA-N,71.3,Pr,    71.30(BP est)   -101.71(MP est)      ----(BP exp)      ----(MP exp)  PC(F)=C(Cl)F ,-101.71,Pred,N
C2H2ClF2P,FC1C(F)(Cl)P1,8,6,6736,130.459,"2-chloro-2,3-difluorophosphirane",N,FC1C(F)(Cl)P1,"InChI=1S/C2H2ClF2P/c3-2(5)1(4)6-2/h1,6H",InChIKey=USMPPUQXHZYKHY-UHFFFAOYSA-N,38.67,Pr,    38.67(BP est)    -82.36(MP est)      ----(BP exp)      ----(MP exp)  FC1C(F)(Cl)P1 ,-82.36,Pred,N
C2H2ClF2P,ClC1C(F)(F)P1,8,6,6737,130.459,"3-chloro-2,2-difluorophosphirane",N,ClC1C(F)(F)P1,"InChI=1S/C2H2ClF2P/c3-1-2(4,5)6-1/h1,6H",InChIKey=BQVUXXKVKACKOP-UHFFFAOYSA-N,52.81,Pr,    52.81(BP est)    -78.23(MP est)      ----(BP exp)      ----(MP exp)  ClC1C(F)(F)P1 ,-78.23,Pred,N
CH4ClO3P,O=P(O)(CCl)O,10,6,6738,130.464,(chloromethyl)phosphonic acid,N,O=P(O)(CCl)O,"InChI=1S/CH4ClO3P/c2-1-6(3,4)5/h1H2,(H2,3,4,5)",InChIKey=MOFCYHDQWIZKMY-UHFFFAOYSA-N,292.26,Pr,   292.26(BP est)     24.04(MP est)      ----(BP exp)      ----(MP exp)  O=P(O)(CCl)O ,24.04,Pred,N
C2H5ClFOP,ClC(POC)F,11,6,6744,130.483,(chlorofluoromethyl)(methoxy)phosphane,N,ClC(POC)F,"InChI=1S/C2H5ClFOP/c1-5-6-2(3)4/h2,6H,1H3",InChIKey=SMWDZXZCMBPTIC-UHFFFAOYSA-N,80.01,Pr,    80.01(BP est)    -87.53(MP est)      ----(BP exp)      ----(MP exp)  ClC(POC)F ,-87.53,Pred,N
C2H5ClFOP,O=P(C)C(Cl)F,11,6,6745,130.483,(chlorofluoromethyl)(methyl)phosphine oxide,N,O=P(C)C(Cl)F,"InChI=1S/C2H5ClFOP/c1-6(5)2(3)4/h2,6H,1H3",InChIKey=ORRMCGWQGIBMDA-UHFFFAOYSA-N,121.15,Pr,   121.15(BP est)    -69.14(MP est)      ----(BP exp)      ----(MP exp)  O=P(C)C(Cl)F ,-69.14,Pred,N
C2H5ClFOP,O=P(CCl)CF,11,6,6747,130.483,(chloromethyl)(fluoromethyl)phosphine oxide,N,O=P(CCl)CF,"InChI=1S/C2H5ClFOP/c3-1-6(5)2-4/h6H,1-2H2",InChIKey=FXQPCWSYIQJNMS-UHFFFAOYSA-N,147.22,Pr,   147.22(BP est)    -54.02(MP est)      ----(BP exp)      ----(MP exp)  O=P(CCl)CF ,-54.02,Pred,N
CClF2OP,O=PC(F)(Cl)F,6,6,6799,132.431,(chlorodifluoromethyl)(oxo)phosphane,N,O=PC(F)(Cl)F,"InChI=1S/CClF2OP/c2-1(3,4)6-5",InChIKey=SIRUXEZYBXNAGS-UHFFFAOYSA-N,79.13,Pr,    79.13(BP est)    -69.85(MP est)      ----(BP exp)      ----(MP exp)  O=PC(F)(Cl)F ,-69.85,Pred,N
CH3ClFO2P,O=P(C(Cl)F)O,9,6,6800,132.455,(chlorofluoromethyl)phosphinic acid,N,O=P(C(Cl)F)O,"InChI=1S/CH3ClFO2P/c2-1(3)6(4)5/h1,6H,(H,4,5)",InChIKey=OHIRHKQIVAUQOM-UHFFFAOYSA-N,196.48,Pr,   196.48(BP est)    -22.37(MP est)      ----(BP exp)      ----(MP exp)  O=P(C(Cl)F)O ,-22.37,Pred,N
C2H4ClF2P,PC(CF)(Cl)F,10,6,6802,132.475,"(1-chloro-1,2-difluoroethyl)phosphane",N,PC(CF)(Cl)F,"InChI=1S/C2H4ClF2P/c3-2(5,6)1-4/h1,6H2",InChIKey=KUXHEARXWHVVPY-UHFFFAOYSA-N,54.22,Pr,    54.22(BP est)    -88.99(MP est)      ----(BP exp)      ----(MP exp)  PC(CF)(Cl)F ,-88.99,Pred,N
C2H4ClF2P,PC(Cl)C(F)F,10,6,6803,132.475,"(1-chloro-2,2-difluoroethyl)phosphane",N,PC(Cl)C(F)F,"InChI=1S/C2H4ClF2P/c3-1(6)2(4)5/h1-2H,6H2",InChIKey=RTMDOZWSSVUJFI-UHFFFAOYSA-N,62.85,Pr,    62.85(BP est)   -102.68(MP est)      ----(BP exp)      ----(MP exp)  PC(Cl)C(F)F ,-102.68,Pred,N
C2H4ClF2P,PC(CCl)(F)F,10,6,6804,132.475,"(2-chloro-1,1-difluoroethyl)phosphane",N,PC(CCl)(F)F,"InChI=1S/C2H4ClF2P/c3-1-2(4,5)6/h1,6H2",InChIKey=KBTVHLAEPWETHJ-UHFFFAOYSA-N,81.69,Pr,    81.69(BP est)    -80.97(MP est)      ----(BP exp)      ----(MP exp)  PC(CCl)(F)F ,-80.97,Pred,N
C2H4ClF2P,PC(F)C(Cl)F,10,6,6805,132.475,"(2-chloro-1,2-difluoroethyl)phosphane",N,PC(F)C(Cl)F,"InChI=1S/C2H4ClF2P/c3-1(4)2(5)6/h1-2H,6H2",InChIKey=WUGCRDYJXODFKX-UHFFFAOYSA-N,62.85,Pr,    62.85(BP est)   -102.68(MP est)      ----(BP exp)      ----(MP exp)  PC(F)C(Cl)F ,-102.68,Pred,N
C2H4ClF2P,PCC(F)(Cl)F,10,6,6806,132.475,"(2-chloro-2,2-difluoroethyl)phosphane",N,PCC(F)(Cl)F,"InChI=1S/C2H4ClF2P/c3-2(4,5)1-6/h1,6H2",InChIKey=ZIKLZDFAFGUJLD-UHFFFAOYSA-N,54.22,Pr,    54.22(BP est)    -88.99(MP est)      ----(BP exp)      ----(MP exp)  PCC(F)(Cl)F ,-88.99,Pred,N
C2H4ClF2P,CPC(F)(Cl)F,10,6,6807,132.475,(chlorodifluoromethyl)(methyl)phosphane,N,CPC(F)(Cl)F,"InChI=1S/C2H4ClF2P/c1-6-2(3,4)5/h6H,1H3",InChIKey=OQGWTNDCPJIMBJ-UHFFFAOYSA-N,31.81,Pr,    31.81(BP est)   -103.71(MP est)      ----(BP exp)      ----(MP exp)  CPC(F)(Cl)F ,-103.71,Pred,N
C2H4ClF2P,FCPC(Cl)F,10,6,6808,132.475,(chlorofluoromethyl)(fluoromethyl)phosphane,N,FCPC(Cl)F,"InChI=1S/C2H4ClF2P/c3-2(5)6-1-4/h2,6H,1H2",InChIKey=CFAGGNABENHFLK-UHFFFAOYSA-N,56.31,Pr,    56.31(BP est)   -105.27(MP est)      ----(BP exp)      ----(MP exp)  FCPC(Cl)F ,-105.27,Pred,N
C2H4ClF2P,ClCPC(F)F,10,6,6809,132.475,(chloromethyl)(difluoromethyl)phosphane,N,ClCPC(F)F,"InChI=1S/C2H4ClF2P/c3-1-6-2(4)5/h2,6H,1H2",InChIKey=UYPNKFOBAGYXTA-UHFFFAOYSA-N,70.16,Pr,    70.16(BP est)   -101.23(MP est)      ----(BP exp)      ----(MP exp)  ClCPC(F)F ,-101.23,Pred,N
C3H9PS2,S(P(SC)C)C,15,6,7052,140.199,dimethyl methylphosphonodithioite,N,S(P(SC)C)C,InChI=1S/C3H9PS2/c1-4(5-2)6-3/h1-3H3,InChIKey=LGXBYLPQWNACTH-UHFFFAOYSA-N,174.09,Pr,   174.09(BP est)    -39.59(MP est)      ----(BP exp)      ----(MP exp)  S(P(SC)C)C ,-39.59,Pred,N
C3H9PS2,CP(C)(=S)SC,15,6,7053,140.199,methyl dimethylphosphinodithioate,N,CP(C)(=S)SC,"InChI=1S/C3H9PS2/c1-4(2,5)6-3/h1-3H3",InChIKey=RJDFYOFAKQIVMA-UHFFFAOYSA-N,162.5,Pr,   162.50(BP est)   -110.17(MP est)      ----(BP exp)      ----(MP exp)  CP(C)(=S)SC ,-110.17,Pred,N
C3H3Cl2P,ClC(C#C)(P)Cl,9,6,7066,140.931,"(1,1-dichloroprop-2-yn-1-yl)phosphane",N,ClC(C#C)(P)Cl,"InChI=1S/C3H3Cl2P/c1-2-3(4,5)6/h1H,6H2",InChIKey=ZHLSDOSKODIIBK-UHFFFAOYSA-N,121.3,Pr,   121.30(BP est)    -25.91(MP est)      ----(BP exp)      ----(MP exp)  ClC(C#C)(P)Cl ,-25.91,Pred,N
C3H3Cl2P,ClC(P)C#CCl,9,6,7067,140.931,"(1,3-dichloroprop-2-yn-1-yl)phosphane",N,ClC(P)C#CCl,"InChI=1S/C3H3Cl2P/c4-2-1-3(5)6/h3H,6H2",InChIKey=BKMWNLWXXRLCAI-UHFFFAOYSA-N,149.06,Pr,   149.06(BP est)      3.05(MP est)      ----(BP exp)      ----(MP exp)  ClC(P)C#CCl ,3.05,Pred,N
C3H3Cl2P,ClCPC#CCl,9,6,7068,140.931,(chloroethynyl)(chloromethyl)phosphane,N,ClCPC#CCl,"InChI=1S/C3H3Cl2P/c4-1-2-6-3-5/h6H,3H2",InChIKey=YLWCMJMVNRIGIJ-UHFFFAOYSA-N,155.42,Pr,   155.42(BP est)      4.22(MP est)      ----(BP exp)      ----(MP exp)  ClCPC#CCl ,4.22,Pred,N
C3H3Cl2P,ClC(PC#C)Cl,9,6,7069,140.931,(dichloromethyl)(ethynyl)phosphane,N,ClC(PC#C)Cl,"InChI=1S/C3H3Cl2P/c1-2-6-3(4)5/h1,3,6H",InChIKey=IUQJOBVWFWWUSU-UHFFFAOYSA-N,135.65,Pr,   135.65(BP est)    -38.62(MP est)      ----(BP exp)      ----(MP exp)  ClC(PC#C)Cl ,-38.62,Pred,N
C3H3Cl2P,ClC1(Cl)C=CP1,9,6,7070,140.931,"2,2-dichloro-1,2-dihydrophosphete",N,ClC1(Cl)C=CP1,"InChI=1S/C3H3Cl2P/c4-3(5)1-2-6-3/h1-2,6H",InChIKey=XRTNJGMFEFXXRW-UHFFFAOYSA-N,111.07,Pr,   111.07(BP est)    -40.48(MP est)      ----(BP exp)      ----(MP exp)  ClC1(Cl)C=CP1 ,-40.48,Pred,N
C3H3Cl2P,ClC1C(Cl)=CP1,9,6,7071,140.931,"2,3-dichloro-1,2-dihydrophosphete",N,ClC1C(Cl)=CP1,"InChI=1S/C3H3Cl2P/c4-2-1-6-3(2)5/h1,3,6H",InChIKey=GJTOBCVNAXQVCW-UHFFFAOYSA-N,131.88,Pr,   131.88(BP est)    -40.09(MP est)      ----(BP exp)      ----(MP exp)  ClC1C(Cl)=CP1 ,-40.09,Pred,N
C3H3Cl2P,ClC1C=C(Cl)P1,9,6,7072,140.931,"2,4-dichloro-1,2-dihydrophosphete",N,ClC1C=C(Cl)P1,"InChI=1S/C3H3Cl2P/c4-2-1-3(5)6-2/h1-2,6H",InChIKey=TWQBADQXSFKLAC-UHFFFAOYSA-N,131.88,Pr,   131.88(BP est)    -40.09(MP est)      ----(BP exp)      ----(MP exp)  ClC1C=C(Cl)P1 ,-40.09,Pred,N
C3H3Cl2P,ClC1=C(CP1)Cl,9,6,7073,140.931,"3,4-dichloro-1,2-dihydrophosphete",N,ClC1=C(CP1)Cl,"InChI=1S/C3H3Cl2P/c4-2-1-6-3(2)5/h6H,1H2",InChIKey=BEKBMIUAPGHKOD-UHFFFAOYSA-N,122.02,Pr,   122.02(BP est)    -34.59(MP est)      ----(BP exp)      ----(MP exp)  ClC1=C(CP1)Cl ,-34.59,Pred,N
C2H7OPS2,S=P(OC)(S)C,13,6,7107,142.171,O-methyl S-hydrogen methylphosphonodithioate,N,S=P(OC)(S)C,"InChI=1S/C2H7OPS2/c1-3-4(2,5)6/h1-2H3,(H,5,6)",InChIKey=RGJVFLINCDNJLQ-UHFFFAOYSA-N,176.08,Pr,   176.08(BP est)    -99.69(MP est)      ----(BP exp)      ----(MP exp)  S=P(OC)(S)C ,-99.69,Pred,N
C2HCl2OP,O=PC(Cl)=CCl,7,6,7118,142.903,"(1,2-dichlorovinyl)(oxo)phosphane",N,O=PC(Cl)=CCl,InChI=1S/C2HCl2OP/c3-1-2(4)6-5/h1H,InChIKey=QBTSKVIWIPHLAW-UHFFFAOYSA-N,154.94,Pr,   154.94(BP est)    -38.44(MP est)      ----(BP exp)      ----(MP exp)  O=PC(Cl)=CCl ,-38.44,Pred,N
C2HCl2OP,O=PC=C(Cl)Cl,7,6,7119,142.903,"(2,2-dichlorovinyl)(oxo)phosphane",N,O=PC=C(Cl)Cl,InChI=1S/C2HCl2OP/c3-2(4)1-6-5/h1H,InChIKey=CHVSJEPHXFKCNQ-UHFFFAOYSA-N,154.94,Pr,   154.94(BP est)    -38.44(MP est)      ----(BP exp)      ----(MP exp)  O=PC=C(Cl)Cl ,-38.44,Pred,N
C3H5Cl2P,ClC(C=C)(P)Cl,11,6,7123,142.947,"(1,1-dichloroallyl)phosphane",N,ClC(C=C)(P)Cl,"InChI=1S/C3H5Cl2P/c1-2-3(4,5)6/h2H,1,6H2",InChIKey=JKYLBLOTUBJSQJ-UHFFFAOYSA-N,111.34,Pr,   111.34(BP est)    -53.18(MP est)      ----(BP exp)      ----(MP exp)  ClC(C=C)(P)Cl ,-53.18,Pred,N
C3H5Cl2P,ClC(P)C(Cl)=C,11,6,7124,142.947,"(1,2-dichloroallyl)phosphane",N,ClC(P)C(Cl)=C,"InChI=1S/C3H5Cl2P/c1-2(4)3(5)6/h3H,1,6H2",InChIKey=OEOLDGXSQQWOEN-UHFFFAOYSA-N,124.85,Pr,   124.85(BP est)    -64.93(MP est)      ----(BP exp)      ----(MP exp)  ClC(P)C(Cl)=C ,-64.93,Pred,N
C3H5Cl2P,ClC1(P)CC1Cl,11,6,7125,142.947,"(1,2-dichlorocyclopropyl)phosphane",N,ClC1(P)CC1Cl,"InChI=1S/C3H5Cl2P/c4-2-1-3(2,5)6/h2H,1,6H2",InChIKey=OLJZGFKDPZWMQR-UHFFFAOYSA-N,133.82,Pr,   133.82(BP est)    -28.15(MP est)      ----(BP exp)      ----(MP exp)  ClC1(P)CC1Cl ,-28.15,Pred,N
C3H5Cl2P,CPC(Cl)=CCl,11,6,7126,142.947,"(1,2-dichlorovinyl)(methyl)phosphane",N,CPC(Cl)=CCl,"InChI=1S/C3H5Cl2P/c1-6-3(5)2-4/h2,6H,1H3",InChIKey=OIMLHHWCBFADEU-UHFFFAOYSA-N,113.04,Pr,   113.04(BP est)    -70.72(MP est)      ----(BP exp)      ----(MP exp)  CPC(Cl)=CCl ,-70.72,Pred,N
C3H5Cl2P,ClC(P)C=CCl,11,6,7127,142.947,"(1,3-dichloroallyl)phosphane",N,ClC(P)C=CCl,"InChI=1S/C3H5Cl2P/c4-2-1-3(5)6/h1-3H,6H2",InChIKey=UBHTVLCTPDIOFX-UHFFFAOYSA-N,139.78,Pr,   139.78(BP est)    -55.25(MP est)      ----(BP exp)      ----(MP exp)  ClC(P)C=CCl ,-55.25,Pred,N
C3H5Cl2P,ClC1(Cl)C(P)C1,11,6,7128,142.947,"(2,2-dichlorocyclopropyl)phosphane",N,ClC1(Cl)C(P)C1,"InChI=1S/C3H5Cl2P/c4-3(5)1-2(3)6/h2H,1,6H2",InChIKey=HDKKTBSUQNNBDE-UHFFFAOYSA-N,121.32,Pr,   121.32(BP est)    -31.80(MP est)      ----(BP exp)      ----(MP exp)  ClC1(Cl)C(P)C1 ,-31.8,Pred,N
C3H5Cl2P,CPC=C(Cl)Cl,11,6,7129,142.947,"(2,2-dichlorovinyl)(methyl)phosphane",N,CPC=C(Cl)Cl,"InChI=1S/C3H5Cl2P/c1-6-2-3(4)5/h2,6H,1H3",InChIKey=BACDZMZZPAZSBO-UHFFFAOYSA-N,113.04,Pr,   113.04(BP est)    -70.72(MP est)      ----(BP exp)      ----(MP exp)  CPC=C(Cl)Cl ,-70.72,Pred,N
C3H5Cl2P,ClC(CP)=CCl,11,6,7130,142.947,"(2,3-dichloroallyl)phosphane",N,ClC(CP)=CCl,"InChI=1S/C3H5Cl2P/c4-1-3(5)2-6/h1H,2,6H2",InChIKey=GUWYXBFZFAWXTD-UHFFFAOYSA-N,132.93,Pr,   132.93(BP est)    -56.73(MP est)      ----(BP exp)      ----(MP exp)  ClC(CP)=CCl ,-56.73,Pred,N
C3H5Cl2P,ClC(Cl)=CCP,11,6,7131,142.947,"(3,3-dichloroallyl)phosphane",N,ClC(Cl)=CCP,"InChI=1S/C3H5Cl2P/c4-3(5)1-2-6/h1H,2,6H2",InChIKey=JJTMXFZGVVRMLU-UHFFFAOYSA-N,132.93,Pr,   132.93(BP est)    -56.73(MP est)      ----(BP exp)      ----(MP exp)  ClC(Cl)=CCP ,-56.73,Pred,N
C3H5Cl2P,ClCPC(Cl)=C,11,6,7132,142.947,(chloromethyl)(1-chlorovinyl)phosphane,N,ClCPC(Cl)=C,"InChI=1S/C3H5Cl2P/c1-3(5)6-2-4/h6H,1-2H2",InChIKey=PBAPMLSXLNXGOY-UHFFFAOYSA-N,131.49,Pr,   131.49(BP est)    -63.68(MP est)      ----(BP exp)      ----(MP exp)  ClCPC(Cl)=C ,-63.68,Pred,N
C3H5Cl2P,ClCPC=CCl,11,6,7133,142.947,(chloromethyl)(2-chlorovinyl)phosphane,N,ClCPC=CCl,"InChI=1S/C3H5Cl2P/c4-1-2-6-3-5/h1-2,6H,3H2",InChIKey=NBNSVSZUSCGOHS-UHFFFAOYSA-N,146.25,Pr,   146.25(BP est)    -54.05(MP est)      ----(BP exp)      ----(MP exp)  ClCPC=CCl ,-54.05,Pred,N
C3H5Cl2P,ClC(PC=C)Cl,11,6,7134,142.947,(dichloromethyl)(vinyl)phosphane,N,ClC(PC=C)Cl,"InChI=1S/C3H5Cl2P/c1-2-6-3(4)5/h2-3,6H,1H2",InChIKey=RQHBDVZAPKNRNA-UHFFFAOYSA-N,125.92,Pr,   125.92(BP est)    -65.82(MP est)      ----(BP exp)      ----(MP exp)  ClC(PC=C)Cl ,-65.82,Pred,N
C3H5Cl2P,ClC(P1CC1)Cl,11,6,7135,142.947,1-(dichloromethyl)phosphirane,N,ClC(P1CC1)Cl,"InChI=1S/C3H5Cl2P/c4-3(5)6-1-2-6/h3H,1-2H2",InChIKey=QWNDXVPFANQHDZ-UHFFFAOYSA-N,136.94,Pr,   136.94(BP est)    -49.56(MP est)      ----(BP exp)      ----(MP exp)  ClC(P1CC1)Cl ,-49.56,Pred,N
C3H5Cl2P,CP1C(Cl)(Cl)C1,11,6,7136,142.947,"2,2-dichloro-1-methylphosphirane",N,CP1C(Cl)(Cl)C1,"InChI=1S/C3H5Cl2P/c1-6-2-3(6,4)5/h2H2,1H3",InChIKey=QBTPZHRMKZPYAL-UHFFFAOYSA-N,106.74,Pr,   106.74(BP est)    -41.05(MP est)      ----(BP exp)      ----(MP exp)  CP1C(Cl)(Cl)C1 ,-41.05,Pred,N
C3H5Cl2P,ClC1(Cl)CCP1,11,6,7137,142.947,"2,2-dichlorophosphetane",N,ClC1(Cl)CCP1,"InChI=1S/C3H5Cl2P/c4-3(5)1-2-6-3/h6H,1-2H2",InChIKey=GXBJZBQUAUXTAY-UHFFFAOYSA-N,107.96,Pr,   107.96(BP est)    -41.77(MP est)      ----(BP exp)      ----(MP exp)  ClC1(Cl)CCP1 ,-41.77,Pred,N
C3H5Cl2P,CP1C(Cl)C1Cl,11,6,7138,142.947,"2,3-dichloro-1-methylphosphirane",N,CP1C(Cl)C1Cl,"InChI=1S/C3H5Cl2P/c1-6-2(4)3(6)5/h2-3H,1H3",InChIKey=QKQSSIIGIWCQAL-UHFFFAOYSA-N,137.47,Pr,   137.47(BP est)    -46.15(MP est)      ----(BP exp)      ----(MP exp)  CP1C(Cl)C1Cl ,-46.15,Pred,N
C3H5Cl2P,ClC1C(Cl)CP1,11,6,7139,142.947,"2,3-dichlorophosphetane",N,ClC1C(Cl)CP1,"InChI=1S/C3H5Cl2P/c4-2-1-6-3(2)5/h2-3,6H,1H2",InChIKey=JSDBXLCZQTWGGJ-UHFFFAOYSA-N,138.63,Pr,   138.63(BP est)    -46.88(MP est)      ----(BP exp)      ----(MP exp)  ClC1C(Cl)CP1 ,-46.88,Pred,N
C3H5Cl2P,ClC1CC(Cl)P1,11,6,7140,142.947,"2,4-dichlorophosphetane",N,ClC1CC(Cl)P1,"InChI=1S/C3H5Cl2P/c4-2-1-3(5)6-2/h2-3,6H,1H2",InChIKey=QUGXIFDWGFYBSP-UHFFFAOYSA-N,138.63,Pr,   138.63(BP est)    -46.88(MP est)      ----(BP exp)      ----(MP exp)  ClC1CC(Cl)P1 ,-46.88,Pred,N
C3H5Cl2P,ClCP1C(Cl)C1,11,6,7141,142.947,2-chloro-1-(chloromethyl)phosphirane,N,ClCP1C(Cl)C1,"InChI=1S/C3H5Cl2P/c4-2-6-1-3(6)5/h3H,1-2H2",InChIKey=AUPDVYRYONLBHP-UHFFFAOYSA-N,156.01,Pr,   156.01(BP est)    -38.61(MP est)      ----(BP exp)      ----(MP exp)  ClCP1C(Cl)C1 ,-38.61,Pred,N
C3H5Cl2P,ClC1(Cl)CPC1,11,6,7142,142.947,"3,3-dichlorophosphetane",N,ClC1(Cl)CPC1,"InChI=1S/C3H5Cl2P/c4-3(5)1-6-2-3/h6H,1-2H2",InChIKey=OXIHAGQGVBQLCW-UHFFFAOYSA-N,107.96,Pr,   107.96(BP est)    -41.77(MP est)      ----(BP exp)      ----(MP exp)  ClC1(Cl)CPC1 ,-41.77,Pred,N
C2H3Cl2OP,O=PC(C)(Cl)Cl,9,6,7208,144.919,"(1,1-dichloroethyl)(oxo)phosphane",N,O=PC(C)(Cl)Cl,"InChI=1S/C2H3Cl2OP/c1-2(3,4)6-5/h1H3",InChIKey=LQZUPUHJBCRYHT-UHFFFAOYSA-N,135.88,Pr,   135.88(BP est)    -33.28(MP est)      ----(BP exp)      ----(MP exp)  O=PC(C)(Cl)Cl ,-33.28,Pred,N
C2H3Cl2OP,O=PC(Cl)CCl,9,6,7209,144.919,"(1,2-dichloroethyl)(oxo)phosphane",N,O=PC(Cl)CCl,"InChI=1S/C2H3Cl2OP/c3-1-2(4)6-5/h2H,1H2",InChIKey=VLNQOTSXUGDALO-UHFFFAOYSA-N,179.98,Pr,   179.98(BP est)    -29.11(MP est)      ----(BP exp)      ----(MP exp)  O=PC(Cl)CCl ,-29.11,Pred,N
C2H3Cl2OP,O=PCC(Cl)Cl,9,6,7211,144.919,"(2,2-dichloroethyl)(oxo)phosphane",N,O=PCC(Cl)Cl,"InChI=1S/C2H3Cl2OP/c3-2(4)1-6-5/h2H,1H2",InChIKey=ZDYDKGDCTDWACK-UHFFFAOYSA-N,168.49,Pr,   168.49(BP est)    -32.46(MP est)      ----(BP exp)      ----(MP exp)  O=PCC(Cl)Cl ,-32.46,Pred,N
C2H3Cl2OP,O=P1C(Cl)(Cl)C1,9,6,7214,144.919,"2,2-dichlorophosphirane 1-oxide",N,O=P1C(Cl)(Cl)C1,"InChI=1S/C2H3Cl2OP/c3-2(4)1-6(2)5/h6H,1H2",InChIKey=JLWJIVNWZHHDAJ-UHFFFAOYSA-N,146.14,Pr,   146.14(BP est)    -17.00(MP est)      ----(BP exp)      ----(MP exp)  O=P1C(Cl)(Cl)C1 ,-17,Pred,N
C2H3Cl2OP,O=P1C(Cl)C1Cl,9,6,7216,144.919,"2,3-dichlorophosphirane 1-oxide",N,O=P1C(Cl)C1Cl,"InChI=1S/C2H3Cl2OP/c3-1-2(4)6(1)5/h1-2,6H",InChIKey=BSEVFHGTCANILZ-UHFFFAOYSA-N,174.82,Pr,   174.82(BP est)    -22.69(MP est)      ----(BP exp)      ----(MP exp)  O=P1C(Cl)C1Cl ,-22.69,Pred,N
C3H7Cl2P,CPC(Cl)(C)Cl,13,6,7222,144.963,"(1,1-dichloroethyl)(methyl)phosphane",N,CPC(Cl)(C)Cl,"InChI=1S/C3H7Cl2P/c1-3(4,5)6-2/h6H,1-2H3",InChIKey=OYXBPBMOXMLHAP-UHFFFAOYSA-N,92.55,Pr,    92.55(BP est)    -65.97(MP est)      ----(BP exp)      ----(MP exp)  CPC(Cl)(C)Cl ,-65.97,Pred,N
C3H7Cl2P,CC(P)C(Cl)Cl,13,6,7223,144.963,"(1,1-dichloropropan-2-yl)phosphane",N,CC(P)C(Cl)Cl,"InChI=1S/C3H7Cl2P/c1-2(6)3(4)5/h2-3H,6H2,1H3",InChIKey=SMGBGQPIAFMWPO-UHFFFAOYSA-N,133.5,Pr,   133.50(BP est)    -62.05(MP est)      ----(BP exp)      ----(MP exp)  CC(P)C(Cl)Cl ,-62.05,Pred,N
C3H7Cl2P,ClC(CC)(P)Cl,13,6,7224,144.963,"(1,1-dichloropropyl)phosphane",N,ClC(CC)(P)Cl,"InChI=1S/C3H7Cl2P/c1-2-3(4,5)6/h2,6H2,1H3",InChIKey=USSDLAOAWRBPMI-UHFFFAOYSA-N,113.1,Pr,   113.10(BP est)    -51.79(MP est)      ----(BP exp)      ----(MP exp)  ClC(CC)(P)Cl ,-51.79,Pred,N
C3H7Cl2P,CPC(CCl)Cl,13,6,7225,144.963,"(1,2-dichloroethyl)(methyl)phosphane",N,CPC(CCl)Cl,"InChI=1S/C3H7Cl2P/c1-6-3(5)2-4/h3,6H,2H2,1H3",InChIKey=ZRIFAZKVHMILEB-UHFFFAOYSA-N,140.04,Pr,   140.04(BP est)    -60.82(MP est)      ----(BP exp)      ----(MP exp)  CPC(CCl)Cl ,-60.82,Pred,N
C3H7Cl2P,ClC(CCl)(P)C,13,6,7226,144.963,"(1,2-dichloropropan-2-yl)phosphane",N,ClC(CCl)(P)C,"InChI=1S/C3H7Cl2P/c1-3(5,6)2-4/h2,6H2,1H3",InChIKey=HYEQLAVQWXVDHV-UHFFFAOYSA-N,138.21,Pr,   138.21(BP est)    -44.46(MP est)      ----(BP exp)      ----(MP exp)  ClC(CCl)(P)C ,-44.46,Pred,N
C3H7Cl2P,ClC(P)C(C)Cl,13,6,7227,144.963,"(1,2-dichloropropyl)phosphane",N,ClC(P)C(C)Cl,"InChI=1S/C3H7Cl2P/c1-2(4)3(5)6/h2-3H,6H2,1H3",InChIKey=IMJKIEGRHQMQLK-UHFFFAOYSA-N,133.5,Pr,   133.50(BP est)    -62.05(MP est)      ----(BP exp)      ----(MP exp)  ClC(P)C(C)Cl ,-62.05,Pred,N
C3H7Cl2P,ClC(P)CCCl,13,6,7228,144.963,"(1,3-dichloropropyl)phosphane",N,ClC(P)CCCl,"InChI=1S/C3H7Cl2P/c4-2-1-3(5)6/h3H,1-2,6H2",InChIKey=RYGXVJNERWOHGA-UHFFFAOYSA-N,159.01,Pr,   159.01(BP est)    -47.10(MP est)      ----(BP exp)      ----(MP exp)  ClC(P)CCCl ,-47.1,Pred,N
C3H7Cl2P,ClCPC(C)Cl,13,6,7229,144.963,(1-chloroethyl)(chloromethyl)phosphane,N,ClCPC(C)Cl,"InChI=1S/C3H7Cl2P/c1-3(5)6-2-4/h3,6H,2H2,1H3",InChIKey=KAOYXZSKFZAUTB-UHFFFAOYSA-N,140.04,Pr,   140.04(BP est)    -60.82(MP est)      ----(BP exp)      ----(MP exp)  ClCPC(C)Cl ,-60.82,Pred,N
C3H7Cl2P,CPCC(Cl)Cl,13,6,7230,144.963,"(2,2-dichloroethyl)(methyl)phosphane",N,CPCC(Cl)Cl,"InChI=1S/C3H7Cl2P/c1-6-2-3(4)5/h3,6H,2H2,1H3",InChIKey=BGNGAFBCISFHEC-UHFFFAOYSA-N,127.64,Pr,   127.64(BP est)    -64.44(MP est)      ----(BP exp)      ----(MP exp)  CPCC(Cl)Cl ,-64.44,Pred,N
C3H7Cl2P,ClC(Cl)(C)CP,13,6,7231,144.963,"(2,2-dichloropropyl)phosphane",N,ClC(Cl)(C)CP,"InChI=1S/C3H7Cl2P/c1-3(4,5)2-6/h2,6H2,1H3",InChIKey=ISVSVSGEYPULOO-UHFFFAOYSA-N,113.1,Pr,   113.10(BP est)    -51.79(MP est)      ----(BP exp)      ----(MP exp)  ClC(Cl)(C)CP ,-51.79,Pred,N
C3H7Cl2P,ClC(CCl)CP,13,6,7232,144.963,"(2,3-dichloropropyl)phosphane",N,ClC(CCl)CP,"InChI=1S/C3H7Cl2P/c4-1-3(5)2-6/h3H,1-2,6H2",InChIKey=ZLWZUBAJWZTRRE-UHFFFAOYSA-N,159.01,Pr,   159.01(BP est)    -47.10(MP est)      ----(BP exp)      ----(MP exp)  ClC(CCl)CP ,-47.1,Pred,N
C3H7Cl2P,ClCPCCCl,13,6,7233,144.963,(2-chloroethyl)(chloromethyl)phosphane,N,ClCPCCCl,"InChI=1S/C3H7Cl2P/c4-1-2-6-3-5/h6H,1-3H2",InChIKey=JUGQLJNLPOVCGW-UHFFFAOYSA-N,165.25,Pr,   165.25(BP est)    -45.96(MP est)      ----(BP exp)      ----(MP exp)  ClCPCCCl ,-45.96,Pred,N
C3H7Cl2P,ClC(Cl)CCP,13,6,7234,144.963,"(3,3-dichloropropyl)phosphane",N,ClC(Cl)CCP,"InChI=1S/C3H7Cl2P/c4-3(5)1-2-6/h3H,1-2,6H2",InChIKey=UFLJRPHRNCPNBH-UHFFFAOYSA-N,147.04,Pr,   147.04(BP est)    -50.59(MP est)      ----(BP exp)      ----(MP exp)  ClC(Cl)CCP ,-50.59,Pred,N