Formula,SMILES,Tot_atoms,Tot_nH_atoms,Dataset_no,Molecular_weight,IUPAC_chemname,Metalloid,EPISUITE,InChI_Code,InChI_Key,Boiling_Point,BP_basis,EPIsuite_output,MP,Basis,Life
C2H3ClIOP,O=P1C(I)C1Cl,9,6,12391,236.373,2-chloro-3-iodophosphirane 1-oxide,N,O=P1C(I)C1Cl,"InChI=1S/C2H3ClIOP/c3-1-2(4)6(1)5/h1-2,6H",InChIKey=WCFIGHLQWAEODF-UHFFFAOYSA-N,225.87,Pr,   225.87(BP est)      6.28(MP est)      ----(BP exp)      ----(MP exp)  O=P1C(I)C1Cl ,6.28,Pred,N
C3H7ClIP,CPC(C)(Cl)I,13,6,12392,236.417,(1-chloro-1-iodoethyl)(methyl)phosphane,N,CPC(C)(Cl)I,"InChI=1S/C3H7ClIP/c1-3(4,5)6-2/h6H,1-2H3",InChIKey=FVKWRSNHQVKJDR-UHFFFAOYSA-N,163.87,Pr,   163.87(BP est)    -31.08(MP est)      ----(BP exp)      ----(MP exp)  CPC(C)(Cl)I ,-31.08,Pred,N
C3H7ClIP,PC(CC)(Cl)I,13,6,12393,236.417,(1-chloro-1-iodopropyl)phosphane,N,PC(CC)(Cl)I,"InChI=1S/C3H7ClIP/c1-2-3(4,5)6/h2,6H2,1H3",InChIKey=KIMXRAHKAYHEQM-UHFFFAOYSA-N,182,Pr,   182.00(BP est)    -17.61(MP est)      ----(BP exp)      ----(MP exp)  PC(CC)(Cl)I ,-17.61,Pred,N
C3H7ClIP,CPC(Cl)CI,13,6,12394,236.417,(1-chloro-2-iodoethyl)(methyl)phosphane,N,CPC(Cl)CI,"InChI=1S/C3H7ClIP/c1-6-3(4)2-5/h3,6H,2H2,1H3",InChIKey=UFOGPVSBEUMKJI-UHFFFAOYSA-N,183.68,Pr,   183.68(BP est)    -34.01(MP est)      ----(BP exp)      ----(MP exp)  CPC(Cl)CI ,-34.01,Pred,N
C3H7ClIP,PC(Cl)C(I)C,13,6,12395,236.417,(1-chloro-2-iodopropyl)phosphane,N,PC(Cl)C(I)C,"InChI=1S/C3H7ClIP/c1-2(5)3(4)6/h2-3H,6H2,1H3",InChIKey=MHLQDZYNTXJYHO-UHFFFAOYSA-N,188.95,Pr,   188.95(BP est)    -31.79(MP est)      ----(BP exp)      ----(MP exp)  PC(Cl)C(I)C ,-31.79,Pred,N
C3H7ClIP,PC(Cl)CCI,13,6,12396,236.417,(1-chloro-3-iodopropyl)phosphane,N,PC(Cl)CCI,"InChI=1S/C3H7ClIP/c4-3(6)1-2-5/h3H,1-2,6H2",InChIKey=ZXPPTCPLGSSVIC-UHFFFAOYSA-N,201.08,Pr,   201.08(BP est)    -20.74(MP est)      ----(BP exp)      ----(MP exp)  PC(Cl)CCI ,-20.74,Pred,N
C3H7ClIP,ICPC(Cl)C,13,6,12397,236.417,(1-chloroethyl)(iodomethyl)phosphane,N,ICPC(Cl)C,"InChI=1S/C3H7ClIP/c1-3(4)6-2-5/h3,6H,2H2,1H3",InChIKey=XXBBUEZBLFAZLP-UHFFFAOYSA-N,183.68,Pr,   183.68(BP est)    -34.01(MP est)      ----(BP exp)      ----(MP exp)  ICPC(Cl)C ,-34.01,Pred,N
C3H7ClIP,CPC(I)CCl,13,6,12398,236.417,(2-chloro-1-iodoethyl)(methyl)phosphane,N,CPC(I)CCl,"InChI=1S/C3H7ClIP/c1-6-3(5)2-4/h3,6H,2H2,1H3",InChIKey=HRNAIMIFDGTWLC-UHFFFAOYSA-N,194.81,Pr,   194.81(BP est)    -30.76(MP est)      ----(BP exp)      ----(MP exp)  CPC(I)CCl ,-30.76,Pred,N
C3H7ClIP,PC(I)C(Cl)C,13,6,12399,236.417,(2-chloro-1-iodopropyl)phosphane,N,PC(I)C(Cl)C,"InChI=1S/C3H7ClIP/c1-2(4)3(5)6/h2-3H,6H2,1H3",InChIKey=RNOFSNYDMCMQFA-UHFFFAOYSA-N,188.95,Pr,   188.95(BP est)    -31.79(MP est)      ----(BP exp)      ----(MP exp)  PC(I)C(Cl)C ,-31.79,Pred,N
C3H7ClIP,CPCC(Cl)I,13,6,12400,236.417,(2-chloro-2-iodoethyl)(methyl)phosphane,N,CPCC(Cl)I,"InChI=1S/C3H7ClIP/c1-6-2-3(4)5/h3,6H,2H2,1H3",InChIKey=QOAONHPPZABPNB-UHFFFAOYSA-N,183.68,Pr,   183.68(BP est)    -34.01(MP est)      ----(BP exp)      ----(MP exp)  CPCC(Cl)I ,-34.01,Pred,N
C3H7ClIP,PCC(C)(Cl)I,13,6,12401,236.417,(2-chloro-2-iodopropyl)phosphane,N,PCC(C)(Cl)I,"InChI=1S/C3H7ClIP/c1-3(4,5)2-6/h2,6H2,1H3",InChIKey=BKVALTOBKLWJTR-UHFFFAOYSA-N,182,Pr,   182.00(BP est)    -17.61(MP est)      ----(BP exp)      ----(MP exp)  PCC(C)(Cl)I ,-17.61,Pred,N
C3H7ClIP,PCC(Cl)CI,13,6,12402,236.417,(2-chloro-3-iodopropyl)phosphane,N,PCC(Cl)CI,"InChI=1S/C3H7ClIP/c4-3(1-5)2-6/h3H,1-2,6H2",InChIKey=GPWQSLRIRBXPAJ-UHFFFAOYSA-N,201.08,Pr,   201.08(BP est)    -20.74(MP est)      ----(BP exp)      ----(MP exp)  PCC(Cl)CI ,-20.74,Pred,N
C3H7ClIP,ICPCCCl,13,6,12403,236.417,(2-chloroethyl)(iodomethyl)phosphane,N,ICPCCCl,"InChI=1S/C3H7ClIP/c4-1-2-6-3-5/h6H,1-3H2",InChIKey=BNMCLSPIBUBQSZ-UHFFFAOYSA-N,206.79,Pr,   206.79(BP est)    -19.76(MP est)      ----(BP exp)      ----(MP exp)  ICPCCCl ,-19.76,Pred,N
C3H7ClIP,PC(I)CCCl,13,6,12404,236.417,(3-chloro-1-iodopropyl)phosphane,N,PC(I)CCCl,"InChI=1S/C3H7ClIP/c4-2-1-3(5)6/h3H,1-2,6H2",InChIKey=SXHDRHURXYIBLG-UHFFFAOYSA-N,211.79,Pr,   211.79(BP est)    -17.62(MP est)      ----(BP exp)      ----(MP exp)  PC(I)CCCl ,-17.62,Pred,N
C3H7ClIP,PCC(I)CCl,13,6,12405,236.417,(3-chloro-2-iodopropyl)phosphane,N,PCC(I)CCl,"InChI=1S/C3H7ClIP/c4-1-3(5)2-6/h3H,1-2,6H2",InChIKey=AOYUJRMKQCMHCO-UHFFFAOYSA-N,211.79,Pr,   211.79(BP est)    -17.62(MP est)      ----(BP exp)      ----(MP exp)  PCC(I)CCl ,-17.62,Pred,N
C3H7ClIP,PCCC(Cl)I,13,6,12406,236.417,(3-chloro-3-iodopropyl)phosphane,N,PCCC(Cl)I,"InChI=1S/C3H7ClIP/c4-3(5)1-2-6/h3H,1-2,6H2",InChIKey=SRXCPGAFTUCCSR-UHFFFAOYSA-N,201.08,Pr,   201.08(BP est)    -20.74(MP est)      ----(BP exp)      ----(MP exp)  PCCC(Cl)I ,-20.74,Pred,N
C3H7ClIP,ClC(PCC)I,13,6,12407,236.417,(chloroiodomethyl)(ethyl)phosphane,N,ClC(PCC)I,"InChI=1S/C3H7ClIP/c1-2-6-3(4)5/h3,6H,2H2,1H3",InChIKey=VGCVXBDJZNZBMR-UHFFFAOYSA-N,183.68,Pr,   183.68(BP est)    -34.01(MP est)      ----(BP exp)      ----(MP exp)  ClC(PCC)I ,-34.01,Pred,N
C3H7ClIP,CP(C)C(Cl)I,13,6,12408,236.417,(chloroiodomethyl)dimethylphosphane,N,CP(C)C(Cl)I,"InChI=1S/C3H7ClIP/c1-6(2)3(4)5/h3H,1-2H3",InChIKey=YZJPWTDKFLWERE-UHFFFAOYSA-N,184.51,Pr,   184.51(BP est)    -34.45(MP est)      ----(BP exp)      ----(MP exp)  CP(C)C(Cl)I ,-34.45,Pred,N
C3H7ClIP,ClCPC(I)C,13,6,12409,236.417,(chloromethyl)(1-iodoethyl)phosphane,N,ClCPC(I)C,"InChI=1S/C3H7ClIP/c1-3(5)6-2-4/h3,6H,2H2,1H3",InChIKey=XULLZWFDIWKXGC-UHFFFAOYSA-N,194.81,Pr,   194.81(BP est)    -30.76(MP est)      ----(BP exp)      ----(MP exp)  ClCPC(I)C ,-30.76,Pred,N
C3H7ClIP,ClCPCCI,13,6,12410,236.417,(chloromethyl)(2-iodoethyl)phosphane,N,ClCPCCI,"InChI=1S/C3H7ClIP/c4-3-6-2-1-5/h6H,1-3H2",InChIKey=BYEZJBSIHOFBJJ-UHFFFAOYSA-N,206.79,Pr,   206.79(BP est)    -19.76(MP est)      ----(BP exp)      ----(MP exp)  ClCPCCI ,-19.76,Pred,N
C3H7ClIP,CP(CCl)CI,13,6,12411,236.417,(chloromethyl)(iodomethyl)(methyl)phosphane,N,CP(CCl)CI,"InChI=1S/C3H7ClIP/c1-6(2-4)3-5/h2-3H2,1H3",InChIKey=SFQKVZPJFPRIPO-UHFFFAOYSA-N,207.58,Pr,   207.58(BP est)    -20.22(MP est)      ----(BP exp)      ----(MP exp)  CP(CCl)CI ,-20.22,Pred,N
CBr2FOP,O=PC(F)(Br)Br,6,6,12447,237.79,(dibromofluoromethyl)(oxo)phosphane,N,O=PC(F)(Br)Br,"InChI=1S/CBr2FOP/c2-1(3,4)6-5",InChIKey=CXKXWJSQBRSKIL-UHFFFAOYSA-N,187.71,Pr,   187.71(BP est)      6.39(MP est)      ----(BP exp)      ----(MP exp)  O=PC(F)(Br)Br ,6.39,Pred,N
C2H4Br2FP,PC(CF)(Br)Br,10,6,12448,237.834,"(1,1-dibromo-2-fluoroethyl)phosphane",N,PC(CF)(Br)Br,"InChI=1S/C2H4Br2FP/c3-2(4,6)1-5/h1,6H2",InChIKey=XOKUDIKOCSOLOT-UHFFFAOYSA-N,167.07,Pr,   167.07(BP est)    -11.49(MP est)      ----(BP exp)      ----(MP exp)  PC(CF)(Br)Br ,-11.49,Pred,N
C2H4Br2FP,PC(CBr)(Br)F,10,6,12449,237.834,"(1,2-dibromo-1-fluoroethyl)phosphane",N,PC(CBr)(Br)F,"InChI=1S/C2H4Br2FP/c3-1-2(4,5)6/h1,6H2",InChIKey=FMAIYYSNPAGVIY-UHFFFAOYSA-N,167.07,Pr,   167.07(BP est)    -11.49(MP est)      ----(BP exp)      ----(MP exp)  PC(CBr)(Br)F ,-11.49,Pred,N
C2H4Br2FP,PC(Br)C(Br)F,10,6,12450,237.834,"(1,2-dibromo-2-fluoroethyl)phosphane",N,PC(Br)C(Br)F,"InChI=1S/C2H4Br2FP/c3-1(5)2(4)6/h1-2H,6H2",InChIKey=NDXZKXYMURQQOZ-UHFFFAOYSA-N,162.65,Pr,   162.65(BP est)    -29.00(MP est)      ----(BP exp)      ----(MP exp)  PC(Br)C(Br)F ,-29,Pred,N
C2H4Br2FP,PC(F)C(Br)Br,10,6,12451,237.834,"(2,2-dibromo-1-fluoroethyl)phosphane",N,PC(F)C(Br)Br,"InChI=1S/C2H4Br2FP/c3-1(4)2(5)6/h1-2H,6H2",InChIKey=CDBBNDQGKJSXRN-UHFFFAOYSA-N,162.65,Pr,   162.65(BP est)    -29.00(MP est)      ----(BP exp)      ----(MP exp)  PC(F)C(Br)Br ,-29,Pred,N
C2H4Br2FP,PCC(F)(Br)Br,10,6,12452,237.834,"(2,2-dibromo-2-fluoroethyl)phosphane",N,PCC(F)(Br)Br,"InChI=1S/C2H4Br2FP/c3-2(4,5)1-6/h1,6H2",InChIKey=JVGXEMGDWMBRCR-UHFFFAOYSA-N,167.07,Pr,   167.07(BP est)    -11.49(MP est)      ----(BP exp)      ----(MP exp)  PCC(F)(Br)Br ,-11.49,Pred,N
C2H4Br2FP,BrCPC(Br)F,10,6,12453,237.834,(bromofluoromethyl)(bromomethyl)phosphane,N,BrCPC(Br)F,"InChI=1S/C2H4Br2FP/c3-1-6-2(4)5/h2,6H,1H2",InChIKey=ONJIXUOLJNHKMF-UHFFFAOYSA-N,157.09,Pr,   157.09(BP est)    -31.30(MP est)      ----(BP exp)      ----(MP exp)  BrCPC(Br)F ,-31.3,Pred,N
C2H4Br2FP,CPC(F)(Br)Br,10,6,12454,237.834,(dibromofluoromethyl)(methyl)phosphane,N,CPC(F)(Br)Br,"InChI=1S/C2H4Br2FP/c1-6-2(3,4)5/h6H,1H3",InChIKey=BHNDRFLJWORHNG-UHFFFAOYSA-N,148.39,Pr,   148.39(BP est)    -25.13(MP est)      ----(BP exp)      ----(MP exp)  CPC(F)(Br)Br ,-25.13,Pred,N
C2H4Br2FP,FCPC(Br)Br,10,6,12455,237.834,(dibromomethyl)(fluoromethyl)phosphane,N,FCPC(Br)Br,"InChI=1S/C2H4Br2FP/c3-2(4)6-1-5/h2,6H,1H2",InChIKey=CSFYEVCWBHUPDF-UHFFFAOYSA-N,157.09,Pr,   157.09(BP est)    -31.30(MP est)      ----(BP exp)      ----(MP exp)  FCPC(Br)Br ,-31.3,Pred,N
C2H2ClFIP,PC(Cl)=C(F)I,8,6,12474,238.365,(1-chloro-2-fluoro-2-iodovinyl)phosphane,N,PC(Cl)=C(F)I,InChI=1S/C2H2ClFIP/c3-1(6)2(4)5/h6H2,InChIKey=HDAXNMYHULFHSH-UHFFFAOYSA-N,177.22,Pr,   177.22(BP est)    -42.05(MP est)      ----(BP exp)      ----(MP exp)  PC(Cl)=C(F)I ,-42.05,Pred,N
C2H2ClFIP,PC(F)=C(Cl)I,8,6,12475,238.365,(2-chloro-1-fluoro-2-iodovinyl)phosphane,N,PC(F)=C(Cl)I,InChI=1S/C2H2ClFIP/c3-1(5)2(4)6/h6H2,InChIKey=IIPKYADFODLILQ-UHFFFAOYSA-N,177.22,Pr,   177.22(BP est)    -42.05(MP est)      ----(BP exp)      ----(MP exp)  PC(F)=C(Cl)I ,-42.05,Pred,N
C2H2ClFIP,PC(I)=C(Cl)F,8,6,12476,238.365,(2-chloro-2-fluoro-1-iodovinyl)phosphane,N,PC(I)=C(Cl)F,InChI=1S/C2H2ClFIP/c3-1(4)2(5)6/h6H2,InChIKey=ZJOLDSRRFLUHLJ-UHFFFAOYSA-N,177.22,Pr,   177.22(BP est)    -42.05(MP est)      ----(BP exp)      ----(MP exp)  PC(I)=C(Cl)F ,-42.05,Pred,N
C2H2ClFIP,IC1C(F)(Cl)P1,8,6,12477,238.365,2-chloro-2-fluoro-3-iodophosphirane,N,IC1C(F)(Cl)P1,"InChI=1S/C2H2ClFIP/c3-2(4)1(5)6-2/h1,6H",InChIKey=RHPDKJJHQYBNBC-UHFFFAOYSA-N,149.89,Pr,   149.89(BP est)    -21.16(MP est)      ----(BP exp)      ----(MP exp)  IC1C(F)(Cl)P1 ,-21.16,Pred,N
C2H2ClFIP,FC1C(I)(Cl)P1,8,6,12478,238.365,2-chloro-3-fluoro-2-iodophosphirane,N,FC1C(I)(Cl)P1,"InChI=1S/C2H2ClFIP/c3-2(5)1(4)6-2/h1,6H",InChIKey=RGJALGUFMREULH-UHFFFAOYSA-N,149.89,Pr,   149.89(BP est)    -21.16(MP est)      ----(BP exp)      ----(MP exp)  FC1C(I)(Cl)P1 ,-21.16,Pred,N
C2H2ClFIP,ClC1C(I)(F)P1,8,6,12479,238.365,3-chloro-2-fluoro-2-iodophosphirane,N,ClC1C(I)(F)P1,"InChI=1S/C2H2ClFIP/c3-1-2(4,5)6-1/h1,6H",InChIKey=JQWOOUWPADPZHT-UHFFFAOYSA-N,161.77,Pr,   161.77(BP est)    -17.69(MP est)      ----(BP exp)      ----(MP exp)  ClC1C(I)(F)P1 ,-17.69,Pred,N
C2H5ClIOP,ClC(POC)I,11,6,12485,238.389,(chloroiodomethyl)(methoxy)phosphane,N,ClC(POC)I,"InChI=1S/C2H5ClIOP/c1-5-6-2(3)4/h2,6H,1H3",InChIKey=RYJCMLVNLGRRNW-UHFFFAOYSA-N,184.48,Pr,   184.48(BP est)    -28.30(MP est)      ----(BP exp)      ----(MP exp)  ClC(POC)I ,-28.3,Pred,N
C2H5ClIOP,O=P(C)C(Cl)I,11,6,12486,238.389,(chloroiodomethyl)(methyl)phosphine oxide,N,O=P(C)C(Cl)I,"InChI=1S/C2H5ClIOP/c1-6(5)2(3)4/h2,6H,1H3",InChIKey=VAULALZYUILVCI-UHFFFAOYSA-N,218.48,Pr,   218.48(BP est)    -11.98(MP est)      ----(BP exp)      ----(MP exp)  O=P(C)C(Cl)I ,-11.98,Pred,N
C2H5ClIOP,O=P(CCl)CI,11,6,12488,238.389,(chloromethyl)(iodomethyl)phosphine oxide,N,O=P(CCl)CI,"InChI=1S/C2H5ClIOP/c3-1-6(5)2-4/h6H,1-2H2",InChIKey=CQZCFFHTHILVFP-UHFFFAOYSA-N,239.77,Pr,   239.77(BP est)      1.73(MP est)      ----(BP exp)      ----(MP exp)  O=P(CCl)CI ,1.73,Pred,N
CClFIOP,O=PC(I)(Cl)F,6,6,12528,240.337,(chlorofluoroiodomethyl)(oxo)phosphane,N,O=PC(I)(Cl)F,"InChI=1S/CClFIOP/c2-1(3,4)6-5",InChIKey=BTPXOBCAGMURKN-UHFFFAOYSA-N,183.75,Pr,   183.75(BP est)    -10.57(MP est)      ----(BP exp)      ----(MP exp)  O=PC(I)(Cl)F ,-10.57,Pred,N
C2H4ClFIP,PC(CI)(Cl)F,10,6,12529,240.381,(1-chloro-1-fluoro-2-iodoethyl)phosphane,N,PC(CI)(Cl)F,"InChI=1S/C2H4ClFIP/c3-2(4,6)1-5/h1,6H2",InChIKey=MFVOGVWFWZJMBI-UHFFFAOYSA-N,162.95,Pr,   162.95(BP est)    -28.51(MP est)      ----(BP exp)      ----(MP exp)  PC(CI)(Cl)F ,-28.51,Pred,N
C2H4ClFIP,PC(CF)(Cl)I,10,6,12530,240.381,(1-chloro-2-fluoro-1-iodoethyl)phosphane,N,PC(CF)(Cl)I,"InChI=1S/C2H4ClFIP/c3-2(5,6)1-4/h1,6H2",InChIKey=ONYYSMHPQJFEDX-UHFFFAOYSA-N,162.95,Pr,   162.95(BP est)    -28.51(MP est)      ----(BP exp)      ----(MP exp)  PC(CF)(Cl)I ,-28.51,Pred,N
C2H4ClFIP,PC(Cl)C(F)I,10,6,12531,240.381,(1-chloro-2-fluoro-2-iodoethyl)phosphane,N,PC(Cl)C(F)I,"InChI=1S/C2H4ClFIP/c3-1(6)2(4)5/h1-2H,6H2",InChIKey=XNDRQRIGPDEVHJ-UHFFFAOYSA-N,170.17,Pr,   170.17(BP est)    -42.61(MP est)      ----(BP exp)      ----(MP exp)  PC(Cl)C(F)I ,-42.61,Pred,N
C2H4ClFIP,PC(CCl)(F)I,10,6,12532,240.381,(2-chloro-1-fluoro-1-iodoethyl)phosphane,N,PC(CCl)(F)I,"InChI=1S/C2H4ClFIP/c3-1-2(4,5)6/h1,6H2",InChIKey=CGLJVQQSNXUANN-UHFFFAOYSA-N,185.88,Pr,   185.88(BP est)    -21.81(MP est)      ----(BP exp)      ----(MP exp)  PC(CCl)(F)I ,-21.81,Pred,N
C2H4ClFIP,PC(F)C(Cl)I,10,6,12533,240.381,(2-chloro-1-fluoro-2-iodoethyl)phosphane,N,PC(F)C(Cl)I,"InChI=1S/C2H4ClFIP/c3-1(5)2(4)6/h1-2H,6H2",InChIKey=DKDUEJQXNRNOIW-UHFFFAOYSA-N,170.17,Pr,   170.17(BP est)    -42.61(MP est)      ----(BP exp)      ----(MP exp)  PC(F)C(Cl)I ,-42.61,Pred,N
C2H4ClFIP,PC(I)C(Cl)F,10,6,12534,240.381,(2-chloro-2-fluoro-1-iodoethyl)phosphane,N,PC(I)C(Cl)F,"InChI=1S/C2H4ClFIP/c3-1(4)2(5)6/h1-2H,6H2",InChIKey=DGFHQTZZDAJPNB-UHFFFAOYSA-N,170.17,Pr,   170.17(BP est)    -42.61(MP est)      ----(BP exp)      ----(MP exp)  PC(I)C(Cl)F ,-42.61,Pred,N
C2H4ClFIP,PCC(I)(Cl)F,10,6,12535,240.381,(2-chloro-2-fluoro-2-iodoethyl)phosphane,N,PCC(I)(Cl)F,"InChI=1S/C2H4ClFIP/c3-2(4,5)1-6/h1,6H2",InChIKey=HWGIJRFKQUIXGY-UHFFFAOYSA-N,162.95,Pr,   162.95(BP est)    -28.51(MP est)      ----(BP exp)      ----(MP exp)  PCC(I)(Cl)F ,-28.51,Pred,N
C2H4ClFIP,CPC(I)(Cl)F,10,6,12536,240.381,(chlorofluoroiodomethyl)(methyl)phosphane,N,CPC(I)(Cl)F,"InChI=1S/C2H4ClFIP/c1-6-2(3,4)5/h6H,1H3",InChIKey=NCONELZMUDGIFL-UHFFFAOYSA-N,144.12,Pr,   144.12(BP est)    -42.19(MP est)      ----(BP exp)      ----(MP exp)  CPC(I)(Cl)F ,-42.19,Pred,N
C2H4ClFIP,ICPC(Cl)F,10,6,12537,240.381,(chlorofluoromethyl)(iodomethyl)phosphane,N,ICPC(Cl)F,"InChI=1S/C2H4ClFIP/c3-2(4)6-1-5/h2,6H,1H2",InChIKey=MVYUYKZWKIUNNC-UHFFFAOYSA-N,164.7,Pr,   164.70(BP est)    -44.89(MP est)      ----(BP exp)      ----(MP exp)  ICPC(Cl)F ,-44.89,Pred,N
C2H4ClFIP,FCPC(Cl)I,10,6,12538,240.381,(chloroiodomethyl)(fluoromethyl)phosphane,N,FCPC(Cl)I,"InChI=1S/C2H4ClFIP/c3-2(5)6-1-4/h2,6H,1H2",InChIKey=FZCJGCAGZPTJHL-UHFFFAOYSA-N,164.7,Pr,   164.70(BP est)    -44.89(MP est)      ----(BP exp)      ----(MP exp)  FCPC(Cl)I ,-44.89,Pred,N
C2H4ClFIP,ClCPC(F)I,10,6,12539,240.381,(chloromethyl)(fluoroiodomethyl)phosphane,N,ClCPC(F)I,"InChI=1S/C2H4ClFIP/c3-1-6-2(4)5/h2,6H,1H2",InChIKey=QJGIUZJSSWSQEP-UHFFFAOYSA-N,176.27,Pr,   176.27(BP est)    -41.51(MP est)      ----(BP exp)      ----(MP exp)  ClCPC(F)I ,-41.51,Pred,N
C2H2Br2ClP,PC(Br)=C(Br)Cl,8,6,12621,252.27,"(1,2-dibromo-2-chlorovinyl)phosphane",N,PC(Br)=C(Br)Cl,InChI=1S/C2H2Br2ClP/c3-1(5)2(4)6/h6H2,InChIKey=LBLLLSLJGMZSEY-UHFFFAOYSA-N,211.15,Pr,   211.15(BP est)     -1.67(MP est)      ----(BP exp)      ----(MP exp)  PC(Br)=C(Br)Cl ,-1.67,Pred,N
C2H2Br2ClP,PC(Cl)=C(Br)Br,8,6,12622,252.27,"(2,2-dibromo-1-chlorovinyl)phosphane",N,PC(Cl)=C(Br)Br,InChI=1S/C2H2Br2ClP/c3-1(4)2(5)6/h6H2,InChIKey=QPVOXNSENFRDTJ-UHFFFAOYSA-N,211.15,Pr,   211.15(BP est)     -1.67(MP est)      ----(BP exp)      ----(MP exp)  PC(Cl)=C(Br)Br ,-1.67,Pred,N
C2H2Br2ClP,ClC1C(Br)(Br)P1,8,6,12623,252.27,"2,2-dibromo-3-chlorophosphirane",N,ClC1C(Br)(Br)P1,"InChI=1S/C2H2Br2ClP/c3-2(4)1(5)6-2/h1,6H",InChIKey=NUDVBMTVFLCFGT-UHFFFAOYSA-N,196.8,Pr,   196.80(BP est)     23.01(MP est)      ----(BP exp)      ----(MP exp)  ClC1C(Br)(Br)P1 ,23.01,Pred,N
C2H2Br2ClP,BrC1C(Cl)(Br)P1,8,6,12624,252.27,"2,3-dibromo-2-chlorophosphirane",N,BrC1C(Cl)(Br)P1,"InChI=1S/C2H2Br2ClP/c3-1-2(4,5)6-1/h1,6H",InChIKey=KRJYQZUAEDVEGI-UHFFFAOYSA-N,185.75,Pr,   185.75(BP est)     19.79(MP est)      ----(BP exp)      ----(MP exp)  BrC1C(Cl)(Br)P1 ,19.79,Pred,N
CBr2ClOP,O=PC(Cl)(Br)Br,6,6,12639,254.242,(dibromochloromethyl)(oxo)phosphane,N,O=PC(Cl)(Br)Br,"InChI=1S/CBr2ClOP/c2-1(3,4)6-5",InChIKey=QWZOCNKPMISIBK-UHFFFAOYSA-N,217.2,Pr,   217.20(BP est)     29.67(MP est)      ----(BP exp)      ----(MP exp)  O=PC(Cl)(Br)Br ,29.67,Pred,N
C2H4Br2ClP,PC(CCl)(Br)Br,10,6,12640,254.286,"(1,1-dibromo-2-chloroethyl)phosphane",N,PC(CCl)(Br)Br,"InChI=1S/C2H4Br2ClP/c3-2(4,6)1-5/h1,6H2",InChIKey=YWNGPBFRTHDNIB-UHFFFAOYSA-N,219.17,Pr,   219.17(BP est)     18.38(MP est)      ----(BP exp)      ----(MP exp)  PC(CCl)(Br)Br ,18.38,Pred,N
C2H4Br2ClP,PC(CBr)(Br)Cl,10,6,12641,254.286,"(1,2-dibromo-1-chloroethyl)phosphane",N,PC(CBr)(Br)Cl,"InChI=1S/C2H4Br2ClP/c3-1-2(4,5)6/h1,6H2",InChIKey=FEJHVTMJXKPNDY-UHFFFAOYSA-N,197.9,Pr,   197.90(BP est)     12.17(MP est)      ----(BP exp)      ----(MP exp)  PC(CBr)(Br)Cl ,12.17,Pred,N
C2H4Br2ClP,PC(Br)C(Br)Cl,10,6,12642,254.286,"(1,2-dibromo-2-chloroethyl)phosphane",N,PC(Br)C(Br)Cl,"InChI=1S/C2H4Br2ClP/c3-1(5)2(4)6/h1-2H,6H2",InChIKey=YKIOJYPRFNEVFG-UHFFFAOYSA-N,204.6,Pr,   204.60(BP est)     -2.08(MP est)      ----(BP exp)      ----(MP exp)  PC(Br)C(Br)Cl ,-2.08,Pred,N
C2H4Br2ClP,PC(Cl)C(Br)Br,10,6,12643,254.286,"(2,2-dibromo-1-chloroethyl)phosphane",N,PC(Cl)C(Br)Br,"InChI=1S/C2H4Br2ClP/c3-1(4)2(5)6/h1-2H,6H2",InChIKey=QBZDGNSULMALLL-UHFFFAOYSA-N,204.6,Pr,   204.60(BP est)     -2.08(MP est)      ----(BP exp)      ----(MP exp)  PC(Cl)C(Br)Br ,-2.08,Pred,N
C2H4Br2ClP,PCC(Cl)(Br)Br,10,6,12644,254.286,"(2,2-dibromo-2-chloroethyl)phosphane",N,PCC(Cl)(Br)Br,"InChI=1S/C2H4Br2ClP/c3-2(4,5)1-6/h1,6H2",InChIKey=CXZMMNZAZONUIK-UHFFFAOYSA-N,197.9,Pr,   197.90(BP est)     12.17(MP est)      ----(BP exp)      ----(MP exp)  PCC(Cl)(Br)Br ,12.17,Pred,N
C2H4Br2ClP,BrCPC(Br)Cl,10,6,12645,254.286,(bromochloromethyl)(bromomethyl)phosphane,N,BrCPC(Br)Cl,"InChI=1S/C2H4Br2ClP/c3-1-6-2(4)5/h2,6H,1H2",InChIKey=RRQIAJKVTROKOI-UHFFFAOYSA-N,199.52,Pr,   199.52(BP est)     -4.25(MP est)      ----(BP exp)      ----(MP exp)  BrCPC(Br)Cl ,-4.25,Pred,N
C2H4Br2ClP,ClCPC(Br)Br,10,6,12646,254.286,(chloromethyl)(dibromomethyl)phosphane,N,ClCPC(Br)Br,"InChI=1S/C2H4Br2ClP/c3-2(4)6-1-5/h2,6H,1H2",InChIKey=QQJMKJYYHLVWNY-UHFFFAOYSA-N,210.27,Pr,   210.27(BP est)     -1.11(MP est)      ----(BP exp)      ----(MP exp)  ClCPC(Br)Br ,-1.11,Pred,N
C2H4Br2ClP,CPC(Cl)(Br)Br,10,6,12647,254.286,(dibromochloromethyl)(methyl)phosphane,N,CPC(Cl)(Br)Br,"InChI=1S/C2H4Br2ClP/c1-6-2(3,4)5/h6H,1H3",InChIKey=MXFTZFHRMMHNED-UHFFFAOYSA-N,180.37,Pr,   180.37(BP est)     -1.13(MP est)      ----(BP exp)      ----(MP exp)  CPC(Cl)(Br)Br ,-1.13,Pred,N
C2H2Cl2IP,PC(Cl)=C(Cl)I,8,6,12653,254.816,"(1,2-dichloro-2-iodovinyl)phosphane",N,PC(Cl)=C(Cl)I,InChI=1S/C2H2Cl2IP/c3-1(5)2(4)6/h6H2,InChIKey=GWQWDCQHDVVKTL-UHFFFAOYSA-N,205.66,Pr,   205.66(BP est)    -19.08(MP est)      ----(BP exp)      ----(MP exp)  PC(Cl)=C(Cl)I ,-19.08,Pred,N
C2H2Cl2IP,PC(I)=C(Cl)Cl,8,6,12654,254.816,"(2,2-dichloro-1-iodovinyl)phosphane",N,PC(I)=C(Cl)Cl,InChI=1S/C2H2Cl2IP/c3-1(4)2(5)6/h6H2,InChIKey=QEFCOTPPAJJLKQ-UHFFFAOYSA-N,205.66,Pr,   205.66(BP est)    -19.08(MP est)      ----(BP exp)      ----(MP exp)  PC(I)=C(Cl)Cl ,-19.08,Pred,N
C2H2Cl2IP,IC1C(Cl)(Cl)P1,8,6,12655,254.816,"2,2-dichloro-3-iodophosphirane",N,IC1C(Cl)(Cl)P1,"InChI=1S/C2H2Cl2IP/c3-2(4)1(5)6-2/h1,6H",InChIKey=DVMUTLOLUNAVTD-UHFFFAOYSA-N,181.78,Pr,   181.78(BP est)      2.82(MP est)      ----(BP exp)      ----(MP exp)  IC1C(Cl)(Cl)P1 ,2.82,Pred,N
C2H2Cl2IP,ClC1C(I)(Cl)P1,8,6,12656,254.816,"2,3-dichloro-2-iodophosphirane",N,ClC1C(I)(Cl)P1,"InChI=1S/C2H2Cl2IP/c3-1-2(4,5)6-1/h1,6H",InChIKey=YKDJIONVEQMPOP-UHFFFAOYSA-N,192.92,Pr,   192.92(BP est)      6.07(MP est)      ----(BP exp)      ----(MP exp)  ClC1C(I)(Cl)P1 ,6.07,Pred,N
CCl2IOP,O=PC(I)(Cl)Cl,6,6,12669,256.788,(dichloroiodomethyl)(oxo)phosphane,N,O=PC(I)(Cl)Cl,"InChI=1S/CCl2IOP/c2-1(3,4)6-5",InChIKey=QTYYOVDTHQOOBZ-UHFFFAOYSA-N,213.51,Pr,   213.51(BP est)     12.78(MP est)      ----(BP exp)      ----(MP exp)  O=PC(I)(Cl)Cl ,12.78,Pred,N
C2H4Cl2IP,PC(CI)(Cl)Cl,10,6,12671,256.832,"(1,1-dichloro-2-iodoethyl)phosphane",N,PC(CI)(Cl)Cl,"InChI=1S/C2H4Cl2IP/c3-2(4,6)1-5/h1,6H2",InChIKey=UWQGOHHLSKYXCA-UHFFFAOYSA-N,194.03,Pr,   194.03(BP est)     -4.77(MP est)      ----(BP exp)      ----(MP exp)  PC(CI)(Cl)Cl ,-4.77,Pred,N