Formula,SMILES,Tot_atoms,Tot_nH_atoms,Dataset_no,Molecular_weight,IUPAC_chemname,Metalloid,EPISUITE,InChI_Code,InChI_Key,Boiling_Point,BP_basis,EPIsuite_output,MP,Basis,Life
C4H6FP,CP(C)C#CF,12,6,4298,104.064,(fluoroethynyl)dimethylphosphane,N,CP(C)C#CF,InChI=1S/C4H6FP/c1-6(2)4-3-5/h1-2H3,InChIKey=HPVODVRFVVCMOJ-UHFFFAOYSA-N,84.84,Pr,    84.84(BP est)    -41.06(MP est)      ----(BP exp)      ----(MP exp)  CP(C)C#CF ,-41.06,Pred,N
C4H6FP,FCPCC#C,12,6,4299,104.064,(fluoromethyl)(prop-2-yn-1-yl)phosphane,N,FCPCC#C,"InChI=1S/C4H6FP/c1-2-3-6-4-5/h1,6H,3-4H2",InChIKey=WUWBUIYYRMHFTA-UHFFFAOYSA-N,74.6,Pr,    74.60(BP est)    -72.93(MP est)      ----(BP exp)      ----(MP exp)  FCPCC#C ,-72.93,Pred,N
C4H6FP,FC(P1CC1)=C,12,6,4300,104.064,1-(1-fluorovinyl)phosphirane,N,FC(P1CC1)=C,InChI=1S/C4H6FP/c1-4(5)6-2-3-6/h1-3H2,InChIKey=OOSRRZUZUOQDBH-UHFFFAOYSA-N,67.32,Pr,    67.32(BP est)    -94.24(MP est)      ----(BP exp)      ----(MP exp)  FC(P1CC1)=C ,-94.24,Pred,N
C4H6FP,FC=CP1CC1,12,6,4301,104.064,1-(2-fluorovinyl)phosphirane,N,FC=CP1CC1,"InChI=1S/C4H6FP/c5-1-2-6-3-4-6/h1-2H,3-4H2",InChIKey=LRQFLTUUIWTFNH-UHFFFAOYSA-N,83.66,Pr,    83.66(BP est)    -84.15(MP est)      ----(BP exp)      ----(MP exp)  FC=CP1CC1 ,-84.15,Pred,N
C4H6FP,FCP1C=CC1,12,6,4302,104.064,"1-(fluoromethyl)-1,2-dihydrophosphete",N,FCP1C=CC1,"InChI=1S/C4H6FP/c5-4-6-2-1-3-6/h1-2H,3-4H2",InChIKey=YUFZXDWOZOJALQ-UHFFFAOYSA-N,81.57,Pr,    81.57(BP est)    -83.60(MP est)      ----(BP exp)      ----(MP exp)  FCP1C=CC1 ,-83.6,Pred,N
C4H6FP,CP1C=CC1F,12,6,4303,104.064,"2-fluoro-1-methyl-1,2-dihydrophosphete",N,CP1C=CC1F,"InChI=1S/C4H6FP/c1-6-3-2-4(6)5/h2-4H,1H3",InChIKey=DRCASECYQMXHKC-UHFFFAOYSA-N,74.37,Pr,    74.37(BP est)    -87.82(MP est)      ----(BP exp)      ----(MP exp)  CP1C=CC1F ,-87.82,Pred,N
C4H6FP,FC1CP1C=C,12,6,4304,104.064,2-fluoro-1-vinylphosphirane,N,FC1CP1C=C,"InChI=1S/C4H6FP/c1-2-6-3-4(6)5/h2,4H,1,3H2",InChIKey=JURWYQHABRXKPJ-UHFFFAOYSA-N,66.89,Pr,    66.89(BP est)    -89.50(MP est)      ----(BP exp)      ----(MP exp)  FC1CP1C=C ,-89.5,Pred,N
C4H6FP,FC1CC=CP1,12,6,4305,104.064,"2-fluoro-2,3-dihydro-1H-phosphole",N,FC1CC=CP1,"InChI=1S/C4H6FP/c5-4-2-1-3-6-4/h1,3-4,6H,2H2",InChIKey=SOHGREUSQQCCLE-UHFFFAOYSA-N,75.65,Pr,    75.65(BP est)    -88.52(MP est)      ----(BP exp)      ----(MP exp)  FC1CC=CP1 ,-88.52,Pred,N
C4H6FP,CP1C=C(F)C1,12,6,4306,104.064,"3-fluoro-1-methyl-1,2-dihydrophosphete",N,CP1C=C(F)C1,"InChI=1S/C4H6FP/c1-6-2-4(5)3-6/h2H,3H2,1H3",InChIKey=WDAHPNAQURKQFT-UHFFFAOYSA-N,79.44,Pr,    79.44(BP est)    -77.96(MP est)      ----(BP exp)      ----(MP exp)  CP1C=C(F)C1 ,-77.96,Pred,N
C4H6FP,FC1C=CPC1,12,6,4307,104.064,"3-fluoro-2,3-dihydro-1H-phosphole",N,FC1C=CPC1,"InChI=1S/C4H6FP/c5-4-1-2-6-3-4/h1-2,4,6H,3H2",InChIKey=CMHOLAWSHUIZQT-UHFFFAOYSA-N,75.65,Pr,    75.65(BP est)    -88.52(MP est)      ----(BP exp)      ----(MP exp)  FC1C=CPC1 ,-88.52,Pred,N
C4H6FP,CP1C(F)=CC1,12,6,4308,104.064,"4-fluoro-1-methyl-1,2-dihydrophosphete",N,CP1C(F)=CC1,"InChI=1S/C4H6FP/c1-6-3-2-4(6)5/h2H,3H2,1H3",InChIKey=CCVJGXJEMHKMNU-UHFFFAOYSA-N,79.44,Pr,    79.44(BP est)    -77.96(MP est)      ----(BP exp)      ----(MP exp)  CP1C(F)=CC1 ,-77.96,Pred,N
C4H6FP,FC1=CPCC1,12,6,4309,104.064,"4-fluoro-2,3-dihydro-1H-phosphole",N,FC1=CPCC1,"InChI=1S/C4H6FP/c5-4-1-2-6-3-4/h3,6H,1-2H2",InChIKey=ZTIOAONECORNFV-UHFFFAOYSA-N,80.72,Pr,    80.72(BP est)    -78.66(MP est)      ----(BP exp)      ----(MP exp)  FC1=CPCC1 ,-78.66,Pred,N
C4H6FP,FC1=CCCP1,12,6,4310,104.064,"5-fluoro-2,3-dihydro-1H-phosphole",N,FC1=CCCP1,"InChI=1S/C4H6FP/c5-4-2-1-3-6-4/h2,6H,1,3H2",InChIKey=GUJJXYDFKPZGNW-UHFFFAOYSA-N,80.72,Pr,    80.72(BP est)    -78.66(MP est)      ----(BP exp)      ----(MP exp)  FC1=CCCP1 ,-78.66,Pred,N
C4H6FP,CCPC#CF,12,6,4311,104.064,ethyl(fluoroethynyl)phosphane,N,CCPC#CF,"InChI=1S/C4H6FP/c1-2-6-4-3-5/h6H,2H2,1H3",InChIKey=VXCNBRCLCSFJCF-UHFFFAOYSA-N,83.86,Pr,    83.86(BP est)    -40.66(MP est)      ----(BP exp)      ----(MP exp)  CCPC#CF ,-40.66,Pred,N
C4H6FP,FC(PC#C)C,12,6,4312,104.064,ethynyl(1-fluoroethyl)phosphane,N,FC(PC#C)C,"InChI=1S/C4H6FP/c1-3-6-4(2)5/h1,4,6H,2H3",InChIKey=UXTGJYIHMBWZBP-UHFFFAOYSA-N,59.39,Pr,    59.39(BP est)    -84.87(MP est)      ----(BP exp)      ----(MP exp)  FC(PC#C)C ,-84.87,Pred,N
C4H6FP,FCCPC#C,12,6,4313,104.064,ethynyl(2-fluoroethyl)phosphane,N,FCCPC#C,"InChI=1S/C4H6FP/c1-2-6-4-3-5/h1,6H,3-4H2",InChIKey=SHNKBYAXLPIFTJ-UHFFFAOYSA-N,74.6,Pr,    74.60(BP est)    -72.93(MP est)      ----(BP exp)      ----(MP exp)  FCCPC#C ,-72.93,Pred,N
C4H6FP,CP(CF)C#C,12,6,4314,104.064,ethynyl(fluoromethyl)(methyl)phosphane,N,CP(CF)C#C,"InChI=1S/C4H6FP/c1-3-6(2)4-5/h1H,4H2,2H3",InChIKey=KFODLOPLQWUDLR-UHFFFAOYSA-N,75.6,Pr,    75.60(BP est)    -73.32(MP est)      ----(BP exp)      ----(MP exp)  CP(CF)C#C ,-73.32,Pred,N
C4H9OP,C1CCPOC1,15,6,4316,104.089,"1,2-oxaphosphinane",N,C1CCPOC1,"InChI=1S/C4H9OP/c1-2-4-6-5-3-1/h6H,1-4H2",InChIKey=IRTWXRWGKPXWAV-UHFFFAOYSA-N,110.19,Pr,   110.19(BP est)    -65.47(MP est)      ----(BP exp)      ----(MP exp)  C1CCPOC1 ,-65.47,Pred,N
C4H9OP,C1COCCP1,15,6,4317,104.089,"1,4-oxaphosphinane",N,C1COCCP1,"InChI=1S/C4H9OP/c1-3-6-4-2-5-1/h6H,1-4H2",InChIKey=GITFJCIAAOFOPR-UHFFFAOYSA-N,110.19,Pr,   110.19(BP est)    -65.47(MP est)      ----(BP exp)      ----(MP exp)  C1COCCP1 ,-65.47,Pred,N
C4H9OP,O=P1(CC)CC1,15,6,4318,104.089,1-ethylphosphirane 1-oxide,N,O=P1(CC)CC1,"InChI=1S/C4H9OP/c1-2-6(5)3-4-6/h2-4H2,1H3",InChIKey=SMGLDGPMJSCHAA-UHFFFAOYSA-N,136.01,Pr,   136.01(BP est)    -56.62(MP est)      ----(BP exp)      ----(MP exp)  O=P1(CC)CC1 ,-56.62,Pred,N
C4H9OP,COP1CCC1,15,6,4319,104.089,1-methoxyphosphetane,N,COP1CCC1,"InChI=1S/C4H9OP/c1-5-6-3-2-4-6/h2-4H2,1H3",InChIKey=JGWQLCOPWOCVSB-UHFFFAOYSA-N,101.28,Pr,   101.28(BP est)    -67.40(MP est)      ----(BP exp)      ----(MP exp)  COP1CCC1 ,-67.4,Pred,N
C4H9OP,O=P1(C)CCC1,15,6,4320,104.089,1-methylphosphetane 1-oxide,N,O=P1(C)CCC1,"InChI=1S/C4H9OP/c1-6(5)3-2-4-6/h2-4H2,1H3",InChIKey=MMPLSBOAEGSOCN-UHFFFAOYSA-N,138.08,Pr,   138.08(BP est)    -57.77(MP est)      ----(BP exp)      ----(MP exp)  O=P1(C)CCC1 ,-57.77,Pred,N
C4H9OP,C=CCPOC,15,6,4322,104.089,allyl(methoxy)phosphane,N,C=CCPOC,"InChI=1S/C4H9OP/c1-3-4-6-5-2/h3,6H,1,4H2,2H3",InChIKey=OSMTZTHGBOZQIC-UHFFFAOYSA-N,87.35,Pr,    87.35(BP est)    -82.76(MP est)      ----(BP exp)      ----(MP exp)  C=CCPOC ,-82.76,Pred,N
C4H9OP,O=P(C)CC=C,15,6,4323,104.089,allyl(methyl)phosphine oxide,N,O=P(C)CC=C,"InChI=1S/C4H9OP/c1-3-4-6(2)5/h3,6H,1,4H2,2H3",InChIKey=FXXFAFFHGNIGSG-UHFFFAOYSA-N,128.02,Pr,   128.02(BP est)    -64.49(MP est)      ----(BP exp)      ----(MP exp)  O=P(C)CC=C ,-64.49,Pred,N
C4H9OP,O=P(C=C)(C)C,15,6,4324,104.089,dimethyl(vinyl)phosphine oxide,N,O=P(C=C)(C)C,"InChI=1S/C4H9OP/c1-4-6(2,3)5/h4H,1H2,2-3H3",InChIKey=UNJLMBCLDIKRCG-UHFFFAOYSA-N,125.9,Pr,   125.90(BP est)    -73.30(MP est)      ----(BP exp)      ----(MP exp)  O=P(C=C)(C)C ,-73.3,Pred,N
C4H9OP,O=P(CC)C=C,15,6,4326,104.089,ethyl(vinyl)phosphine oxide,N,O=P(CC)C=C,"InChI=1S/C4H9OP/c1-3-6(5)4-2/h3,6H,1,4H2,2H3",InChIKey=QIAFDZIRSQQBCX-UHFFFAOYSA-N,128.02,Pr,   128.02(BP est)    -64.49(MP est)      ----(BP exp)      ----(MP exp)  O=P(CC)C=C ,-64.49,Pred,N
C4H9OP,CC(C)CP=O,15,6,4327,104.089,isobutyl(oxo)phosphane,N,CC(C)CP=O,"InChI=1S/C4H9OP/c1-4(2)3-6-5/h4H,3H2,1-2H3",InChIKey=FUHYHJZZGKFGMD-UHFFFAOYSA-N,117.94,Pr,   117.94(BP est)    -65.87(MP est)      ----(BP exp)      ----(MP exp)  CC(C)CP=O ,-65.87,Pred,N
C4H9OP,CP(C=C)OC,15,6,4328,104.089,methoxy(methyl)(vinyl)phosphane,N,CP(C=C)OC,"InChI=1S/C4H9OP/c1-4-6(3)5-2/h4H,1H2,2-3H3",InChIKey=ZXSISWVREDRDAC-UHFFFAOYSA-N,88.33,Pr,    88.33(BP est)    -83.15(MP est)      ----(BP exp)      ----(MP exp)  CP(C=C)OC ,-83.15,Pred,N
C4H9OP,O=P1CCCC1,15,6,4330,104.089,phospholane 1-oxide,N,O=P1CCCC1,"InChI=1S/C4H9OP/c5-6-3-1-2-4-6/h6H,1-4H2",InChIKey=LHPAUSNAHIWPIC-UHFFFAOYSA-N,142.22,Pr,   142.22(BP est)    -50.14(MP est)      ----(BP exp)      ----(MP exp)  O=P1CCCC1 ,-50.14,Pred,N
C5H13P,CC(CP)CC,19,6,4332,104.133,(2-methylbutyl)phosphane,N,CC(CP)CC,"InChI=1S/C5H13P/c1-3-5(2)4-6/h5H,3-4,6H2,1-2H3",InChIKey=GTEKEEJCXLPFOE-UHFFFAOYSA-N,94.47,Pr,    94.47(BP est)    -84.59(MP est)      ----(BP exp)      ----(MP exp)  CC(CP)CC ,-84.59,Pred,N
C5H13P,CC(C(P)C)C,19,6,4333,104.133,(3-methylbutan-2-yl)phosphane,N,CC(C(P)C)C,"InChI=1S/C5H13P/c1-4(2)5(3)6/h4-5H,6H2,1-3H3",InChIKey=RNBIOVUVWBXXSQ-UHFFFAOYSA-N,79.7,Pr,    79.70(BP est)    -96.40(MP est)      ----(BP exp)      ----(MP exp)  CC(C(P)C)C ,-96.4,Pred,N
C5H13P,CPCCCC,19,6,4334,104.133,butyl(methyl)phosphane,N,CPCCCC,"InChI=1S/C5H13P/c1-3-4-5-6-2/h6H,3-5H2,1-2H3",InChIKey=CGCDZBJYFKZTOK-UHFFFAOYSA-N,112.69,Ex,    88.22(BP est)    -87.10(MP est)      ----(BP exp)      ----(MP exp)  CPCCCC ,-87.1,Pred,N
C5H13P,CP(CC)CC,19,6,4335,104.133,diethyl(methyl)phosphane,N,CP(CC)CC,"InChI=1S/C5H13P/c1-4-6(3)5-2/h4-5H2,1-3H3",InChIKey=HZHUAESPXGNNFV-UHFFFAOYSA-N,89.2,Pr,    89.20(BP est)    -87.50(MP est)      ----(BP exp)      ----(MP exp)  CP(CC)CC ,-87.5,Pred,N
C5H13P,CP(CCC)C,19,6,4336,104.133,dimethyl(propyl)phosphane,N,CP(CCC)C,"InChI=1S/C5H13P/c1-4-5-6(2)3/h4-5H2,1-3H3",InChIKey=QVTPAZHGNYBKHE-UHFFFAOYSA-N,89.2,Pr,    89.20(BP est)    -87.50(MP est)      ----(BP exp)      ----(MP exp)  CP(CCC)C ,-87.5,Pred,N
C5H13P,CCPC(C)C,19,6,4337,104.133,ethyl(isopropyl)phosphane,N,CCPC(C)C,"InChI=1S/C5H13P/c1-4-6-5(2)3/h5-6H,4H2,1-3H3",InChIKey=PKSTZFIOJBHFBG-UHFFFAOYSA-N,73.31,Pr,    73.31(BP est)    -98.95(MP est)      ----(BP exp)      ----(MP exp)  CCPC(C)C ,-98.95,Pred,N
C5H13P,CCPCCC,19,6,4338,104.133,ethyl(propyl)phosphane,N,CCPCCC,"InChI=1S/C5H13P/c1-3-5-6-4-2/h6H,3-5H2,1-2H3",InChIKey=XRGVARIXAZJNBF-UHFFFAOYSA-N,88.22,Pr,    88.22(BP est)    -87.10(MP est)      ----(BP exp)      ----(MP exp)  CCPCCC ,-87.1,Pred,N
C5H13P,CC(CPC)C,19,6,4339,104.133,isobutyl(methyl)phosphane,N,CC(CPC)C,"InChI=1S/C5H13P/c1-5(2)4-6-3/h5-6H,4H2,1-3H3",InChIKey=MVHMOITUWIHVKU-UHFFFAOYSA-N,73.31,Pr,    73.31(BP est)    -98.95(MP est)      ----(BP exp)      ----(MP exp)  CC(CPC)C ,-98.95,Pred,N
C5H13P,CC(CCP)C,19,6,4340,104.133,isopentylphosphane,N,CC(CCP)C,"InChI=1S/C5H13P/c1-5(2)3-4-6/h5H,3-4,6H2,1-2H3",InChIKey=PHUQBBUNZUCQRK-UHFFFAOYSA-N,94.47,Pr,    94.47(BP est)    -84.59(MP est)      ----(BP exp)      ----(MP exp)  CC(CCP)C ,-84.59,Pred,N
C5H13P,CP(C(C)C)C,19,6,4341,104.133,isopropyldimethylphosphane,N,CP(C(C)C)C,"InChI=1S/C5H13P/c1-5(2)6(3)4/h5H,1-4H3",InChIKey=DDTJHNQEGUTUIJ-UHFFFAOYSA-N,74.31,Pr,    74.31(BP est)    -99.35(MP est)      ----(BP exp)      ----(MP exp)  CP(C(C)C)C ,-99.35,Pred,N
C5H13P,CC(C)(CP)C,19,6,4342,104.133,neopentylphosphane,N,CC(C)(CP)C,"InChI=1S/C5H13P/c1-5(2,3)4-6/h4,6H2,1-3H3",InChIKey=HJPQKYUERLEXPG-UHFFFAOYSA-N,84.79,Pr,    84.79(BP est)    -78.71(MP est)      ----(BP exp)      ----(MP exp)  CC(C)(CP)C ,-78.71,Pred,N
C5H13P,CC(P)CCC,19,6,4343,104.133,pentan-2-ylphosphane,N,CC(P)CCC,"InChI=1S/C5H13P/c1-3-4-5(2)6/h5H,3-4,6H2,1-2H3",InChIKey=QJVNPOHYEQDGJB-UHFFFAOYSA-N,94.47,Pr,    94.47(BP est)    -84.59(MP est)      ----(BP exp)      ----(MP exp)  CC(P)CCC ,-84.59,Pred,N
C5H13P,CCC(P)CC,19,6,4344,104.133,pentan-3-ylphosphane,N,CCC(P)CC,"InChI=1S/C5H13P/c1-3-5(6)4-2/h5H,3-4,6H2,1-2H3",InChIKey=ITLYXTVUKSXJOR-UHFFFAOYSA-N,94.47,Pr,    94.47(BP est)    -84.59(MP est)      ----(BP exp)      ----(MP exp)  CCC(P)CC ,-84.59,Pred,N
C5H13P,CCCCCP,19,6,4345,104.133,pentylphosphane,N,CCCCCP,"InChI=1S/C5H13P/c1-2-3-4-5-6/h2-6H2,1H3",InChIKey=WEYHWRWGAACKIL-UHFFFAOYSA-N,104,Ex,   108.91(BP est)    -72.87(MP est)      ----(BP exp)      ----(MP exp)  CCCCCP ,-72.87,Pred,N
C5H13P,CPC(CC)C,19,6,4346,104.133,sec-butyl(methyl)phosphane,N,CPC(CC)C,"InChI=1S/C5H13P/c1-4-5(2)6-3/h5-6H,4H2,1-3H3",InChIKey=UVXWUIULOPKNHM-UHFFFAOYSA-N,73.31,Pr,    73.31(BP est)    -98.95(MP est)      ----(BP exp)      ----(MP exp)  CPC(CC)C ,-98.95,Pred,N
C5H13P,CPC(C)(C)C,19,6,4347,104.133,tert-butyl(methyl)phosphane,N,CPC(C)(C)C,"InChI=1S/C5H13P/c1-5(2,3)6-4/h6H,1-4H3",InChIKey=ZDQSBZHWCMBILH-UHFFFAOYSA-N,63.33,Pr,    63.33(BP est)    -93.16(MP est)      ----(BP exp)      ----(MP exp)  CPC(C)(C)C ,-93.16,Pred,N
C5H13P,CC(CC)(P)C,19,6,4348,104.133,tert-pentylphosphane,N,CC(CC)(P)C,"InChI=1S/C5H13P/c1-4-5(2,3)6/h4,6H2,1-3H3",InChIKey=FVVJVPOBXNQTGR-UHFFFAOYSA-N,84.79,Pr,    84.79(BP est)    -78.71(MP est)      ----(BP exp)      ----(MP exp)  CC(CC)(P)C ,-78.71,Pred,N
C2H4NO2P,C(C(=N)O)P=O,10,6,4526,105.033,2-(oxophosphaneyl)acetimidic acid,N,C(C(=N)O)P=O,"InChI=1S/C2H4NO2P/c3-2(4)1-6-5/h1H2,(H2,3,4)",InChIKey=LKNVLTNEEMGJHY-UHFFFAOYSA-N,243.28,Pr,   243.28(BP est)     31.75(MP est)      ----(BP exp)      ----(MP exp)  C(C(=N)O)P=O ,31.75,Pred,N
C3H8NOP,N1CCCOP1,14,6,4527,105.077,"1,3,2-oxazaphosphinane",N,N1CCCOP1,"InChI=1S/C3H8NOP/c1-2-4-6-5-3-1/h4,6H,1-3H2",InChIKey=JEHSQBJZMRRHSD-UHFFFAOYSA-N,147.14,Pr,   147.14(BP est)     -7.80(MP est)      ----(BP exp)      ----(MP exp)  N1CCCOP1 ,-7.8,Pred,N
C4H12NP,NCCP(C)C,18,6,4531,105.121,2-(dimethylphosphaneyl)ethan-1-amine,N,NCCP(C)C,"InChI=1S/C4H12NP/c1-6(2)4-3-5/h3-5H2,1-2H3",InChIKey=IKNKRQDYANBMHT-UHFFFAOYSA-N,128.32,Pr,   128.32(BP est)    -40.08(MP est)      ----(BP exp)      ----(MP exp)  NCCP(C)C ,-40.08,Pred,N
C4H12NP,N(C)(C)CCP,18,6,4533,105.121,"N,N-dimethyl-2-phosphaneylethan-1-amine",N,N(C)(C)CCP,"InChI=1S/C4H12NP/c1-5(2)3-4-6/h3-4,6H2,1-2H3",InChIKey=LSUATVNDOGCIBI-UHFFFAOYSA-N,108.25,Pr,   108.25(BP est)    -62.47(MP est)      ----(BP exp)      ----(MP exp)  N(C)(C)CCP ,-62.47,Pred,N
C2H3O3P,O=P(O)(C#C)O,9,6,4631,106.017,ethynylphosphonic acid,N,O=P(O)(C#C)O,"InChI=1S/C2H3O3P/c1-2-6(3,4)5/h1H,(H2,3,4,5)",InChIKey=GGABWRGYJHJXJO-UHFFFAOYSA-N,271.35,Pr,   271.35(BP est)     43.08(MP est)      ----(BP exp)      ----(MP exp)  O=P(O)(C#C)O ,43.08,Pred,N
C3H4FOP,O=PC(F)C=C,10,6,4632,106.036,(1-fluoroallyl)(oxo)phosphane,N,O=PC(F)C=C,"InChI=1S/C3H4FOP/c1-2-3(4)6-5/h2-3H,1H2",InChIKey=HCKNUGYENQWVLV-UHFFFAOYSA-N,94.71,Pr,    94.71(BP est)    -78.88(MP est)      ----(BP exp)      ----(MP exp)  O=PC(F)C=C ,-78.88,Pred,N
C3H4FOP,O=PCC(F)=C,10,6,4634,106.036,(2-fluoroallyl)(oxo)phosphane,N,O=PCC(F)=C,InChI=1S/C3H4FOP/c1-3(4)2-6-5/h1-2H2,InChIKey=QJZZLTDAJFQBAH-UHFFFAOYSA-N,102.65,Pr,   102.65(BP est)    -76.04(MP est)      ----(BP exp)      ----(MP exp)  O=PCC(F)=C ,-76.04,Pred,N
C3H4FOP,O=PCC=CF,10,6,4635,106.036,(3-fluoroallyl)(oxo)phosphane,N,O=PCC=CF,"InChI=1S/C3H4FOP/c4-2-1-3-6-5/h1-2H,3H2",InChIKey=DWIUYNOBUSWQSP-UHFFFAOYSA-N,118.14,Pr,   118.14(BP est)    -66.19(MP est)      ----(BP exp)      ----(MP exp)  O=PCC=CF ,-66.19,Pred,N
C3H4FOP,FC#CPOC,10,6,4638,106.036,(fluoroethynyl)(methoxy)phosphane,N,FC#CPOC,"InChI=1S/C3H4FOP/c1-5-6-3-2-4/h6H,1H3",InChIKey=SBMFZYOLWUXLRM-UHFFFAOYSA-N,84.81,Pr,    84.81(BP est)    -34.91(MP est)      ----(BP exp)      ----(MP exp)  FC#CPOC ,-34.91,Pred,N
C3H4FOP,O=P(C)C#CF,10,6,4639,106.036,(fluoroethynyl)(methyl)phosphine oxide,N,O=P(C)C#CF,"InChI=1S/C3H4FOP/c1-6(5)3-2-4/h6H,1H3",InChIKey=WBAOCRIFCUBYMO-UHFFFAOYSA-N,125.65,Pr,   125.65(BP est)    -16.60(MP est)      ----(BP exp)      ----(MP exp)  O=P(C)C#CF ,-16.6,Pred,N
C3H4FOP,O=P1C=CC1F,10,6,4640,106.036,2-fluoro-2H-phosphete 1-oxide,N,O=P1C=CC1F,"InChI=1S/C3H4FOP/c4-3-1-2-6(3)5/h1-3,6H",InChIKey=OHBKTEWUBGEKQD-UHFFFAOYSA-N,115.83,Pr,   115.83(BP est)    -63.17(MP est)      ----(BP exp)      ----(MP exp)  O=P1C=CC1F ,-63.17,Pred,N
C3H4FOP,O=P1C=C(F)C1,10,6,4642,106.036,3-fluoro-2H-phosphete 1-oxide,N,O=P1C=C(F)C1,"InChI=1S/C3H4FOP/c4-3-1-6(5)2-3/h1,6H,2H2",InChIKey=WJPJJUISRSIHFF-UHFFFAOYSA-N,120.59,Pr,   120.59(BP est)    -53.40(MP est)      ----(BP exp)      ----(MP exp)  O=P1C=C(F)C1 ,-53.4,Pred,N
C3H4FOP,O=P1C(F)=CC1,10,6,4644,106.036,4-fluoro-2H-phosphete 1-oxide,N,O=P1C(F)=CC1,"InChI=1S/C3H4FOP/c4-3-1-2-6(3)5/h1,6H,2H2",InChIKey=NHQWEACLVYXSPL-UHFFFAOYSA-N,120.59,Pr,   120.59(BP est)    -53.40(MP est)      ----(BP exp)      ----(MP exp)  O=P1C(F)=CC1 ,-53.4,Pred,N
C3H4FOP,O=P(CF)C#C,10,6,4647,106.036,ethynyl(fluoromethyl)phosphine oxide,N,O=P(CF)C#C,"InChI=1S/C3H4FOP/c1-2-6(5)3-4/h1,6H,3H2",InChIKey=PSCQWRQJJAICGM-UHFFFAOYSA-N,116.99,Pr,   116.99(BP est)    -48.69(MP est)      ----(BP exp)      ----(MP exp)  O=P(CF)C#C ,-48.69,Pred,N
C3H7O2P,O=P1(O)CCC1,13,6,4648,106.061,1-hydroxyphosphetane 1-oxide,N,O=P1(O)CCC1,"InChI=1S/C3H7O2P/c4-6(5)2-1-3-6/h1-3H2,(H,4,5)",InChIKey=GXFXXRGXUCTBEU-UHFFFAOYSA-N,211.08,Pr,   211.08(BP est)    -11.69(MP est)      ----(BP exp)      ----(MP exp)  O=P1(O)CCC1 ,-11.69,Pred,N
C3H7O2P,O=P1(OC)CC1,13,6,4649,106.061,1-methoxyphosphirane 1-oxide,N,O=P1(OC)CC1,"InChI=1S/C3H7O2P/c1-5-6(4)2-3-6/h2-3H2,1H3",InChIKey=VJBLREWGULADKY-UHFFFAOYSA-N,136.89,Pr,   136.89(BP est)    -50.88(MP est)      ----(BP exp)      ----(MP exp)  O=P1(OC)CC1 ,-50.88,Pred,N
C3H7O2P,O=P(CC=C)O,13,6,4650,106.061,allylphosphinic acid,N,O=P(CC=C)O,"InChI=1S/C3H7O2P/c1-2-3-6(4)5/h2,6H,1,3H2,(H,4,5)",InChIKey=ZFTYTEXTMQFIEK-UHFFFAOYSA-N,202.41,Pr,   202.41(BP est)    -18.00(MP est)      ----(BP exp)      ----(MP exp)  O=P(CC=C)O ,-18,Pred,N
C3H7O2P,CC(C)OP=O,13,6,4652,106.061,isopropyl phosphenite,N,CC(C)OP=O,"InChI=1S/C3H7O2P/c1-3(2)5-6-4/h3H,1-2H3",InChIKey=BZUATXRJYQEIML-UHFFFAOYSA-N,118.85,Pr,   118.85(BP est)    -60.13(MP est)      ----(BP exp)      ----(MP exp)  CC(C)OP=O ,-60.13,Pred,N
C3H7O2P,C=CP(O)OC,13,6,4653,106.061,methyl hydrogen vinylphosphonite,N,C=CP(O)OC,"InChI=1S/C3H7O2P/c1-3-6(4)5-2/h3-4H,1H2,2H3",InChIKey=KXKJQRVVYYOXAP-UHFFFAOYSA-N,167.98,Pr,   167.98(BP est)    -35.12(MP est)      ----(BP exp)      ----(MP exp)  C=CP(O)OC ,-35.12,Pred,N
C3H7O2P,O=P(C=C)OC,13,6,4654,106.061,methyl vinylphosphinate,N,O=P(C=C)OC,"InChI=1S/C3H7O2P/c1-3-6(4)5-2/h3,6H,1H2,2H3",InChIKey=JBVDSGOAAVNQJC-UHFFFAOYSA-N,128.91,Pr,   128.91(BP est)    -58.75(MP est)      ----(BP exp)      ----(MP exp)  O=P(C=C)OC ,-58.75,Pred,N
C4H8FP,CPC(F)C=C,14,6,4656,106.08,(1-fluoroallyl)(methyl)phosphane,N,CPC(F)C=C,"InChI=1S/C4H8FP/c1-3-4(5)6-2/h3-4,6H,1H2,2H3",InChIKey=DINTVOCZCBOEIS-UHFFFAOYSA-N,48.45,Pr,    48.45(BP est)   -112.43(MP est)      ----(BP exp)      ----(MP exp)  CPC(F)C=C ,-112.43,Pred,N
C4H8FP,FC(PC=C)C,14,6,4657,106.08,(1-fluoroethyl)(vinyl)phosphane,N,FC(PC=C)C,"InChI=1S/C4H8FP/c1-3-6-4(2)5/h3-4,6H,1H2,2H3",InChIKey=ZGMBSOUBZGMGEF-UHFFFAOYSA-N,48.45,Pr,    48.45(BP est)   -112.43(MP est)      ----(BP exp)      ----(MP exp)  FC(PC=C)C ,-112.43,Pred,N
C4H8FP,CP(C)C(F)=C,14,6,4658,106.08,(1-fluorovinyl)dimethylphosphane,N,CP(C)C(F)=C,"InChI=1S/C4H8FP/c1-4(5)6(2)3/h1H2,2-3H3",InChIKey=RPDSWCFSZIDPBW-UHFFFAOYSA-N,57.97,Pr,    57.97(BP est)   -109.82(MP est)      ----(BP exp)      ----(MP exp)  CP(C)C(F)=C ,-109.82,Pred,N
C4H8FP,CPCC(F)=C,14,6,4659,106.08,(2-fluoroallyl)(methyl)phosphane,N,CPCC(F)=C,"InChI=1S/C4H8FP/c1-4(5)3-6-2/h6H,1,3H2,2H3",InChIKey=KJQBOFCTQNJRQH-UHFFFAOYSA-N,56.94,Pr,    56.94(BP est)   -109.43(MP est)      ----(BP exp)      ----(MP exp)  CPCC(F)=C ,-109.43,Pred,N
C4H8FP,FCCPC=C,14,6,4660,106.08,(2-fluoroethyl)(vinyl)phosphane,N,FCCPC=C,"InChI=1S/C4H8FP/c1-2-6-4-3-5/h2,6H,1,3-4H2",InChIKey=DPIWVRXMAIRJFV-UHFFFAOYSA-N,63.89,Pr,    63.89(BP est)   -100.42(MP est)      ----(BP exp)      ----(MP exp)  FCCPC=C ,-100.42,Pred,N
C4H8FP,CP(C)C=CF,14,6,4661,106.08,(2-fluorovinyl)dimethylphosphane,N,CP(C)C=CF,"InChI=1S/C4H8FP/c1-6(2)4-3-5/h3-4H,1-2H3",InChIKey=KSYZCRSQMVHABA-UHFFFAOYSA-N,74.53,Pr,    74.53(BP est)    -99.66(MP est)      ----(BP exp)      ----(MP exp)  CP(C)C=CF ,-99.66,Pred,N
C4H8FP,CPCC=CF,14,6,4662,106.08,(3-fluoroallyl)(methyl)phosphane,N,CPCC=CF,"InChI=1S/C4H8FP/c1-6-4-2-3-5/h2-3,6H,4H2,1H3",InChIKey=PDENDHFNRMHJMD-UHFFFAOYSA-N,73.53,Pr,    73.53(BP est)    -99.27(MP est)      ----(BP exp)      ----(MP exp)  CPCC=CF ,-99.27,Pred,N
C4H8FP,CP(CF)C=C,14,6,4663,106.08,(fluoromethyl)(methyl)(vinyl)phosphane,N,CP(CF)C=C,"InChI=1S/C4H8FP/c1-3-6(2)4-5/h3H,1,4H2,2H3",InChIKey=LISATDUEXVMHNE-UHFFFAOYSA-N,64.91,Pr,    64.91(BP est)   -100.81(MP est)      ----(BP exp)      ----(MP exp)  CP(CF)C=C ,-100.81,Pred,N